TITLE = "Visualization of the solution"
VARIABLES = "x","y","Density","Momentum_x","Momentum_y","Energy","Nu_Tilde","Pressure","Temperature","Mach","Pressure_Coefficient","Laminar_Viscosity","Skin_Friction_Coefficient_x","Skin_Friction_Coefficient_y","Heat_Flux","Y_Plus","Eddy_Viscosity"
ZONE NODES= 14576, ELEMENTS= 14336, DATAPACKING=POINT, ZONETYPE=FEQUADRILATERAL
5.010000e+02	5.352203e-08	9.999986e-01	3.746316e-01	-6.538371e-03	2.570192e+00	8.876207e-08	9.999983e-01	9.999997e-01	3.166702e-01	-2.430020e-05	2.958039e-08	0.000000e+00	0.000000e+00	0.000000e+00	0.000000e+00	6.230426e-09	
4.052710e+02	5.352203e-08	9.999988e-01	3.746350e-01	-6.532603e-03	2.570194e+00	8.876565e-08	9.999986e-01	9.999998e-01	3.166729e-01	-2.023983e-05	2.958039e-08	0.000000e+00	0.000000e+00	0.000000e+00	0.000000e+00	6.231347e-09	
3.278693e+02	5.352203e-08	9.999991e-01	3.746338e-01	-6.527396e-03	2.570195e+00	8.877016e-08	9.999992e-01	1.000000e+00	3.166717e-01	-1.205435e-05	2.958040e-08	0.000000e+00	0.000000e+00	0.000000e+00	0.000000e+00	6.232546e-09	
2.652863e+02	5.352203e-08	9.999992e-01	3.746309e-01	-6.524515e-03	2.570194e+00	8.877260e-08	9.999995e-01	1.000000e+00	3.166691e-01	-6.612659e-06	2.958041e-08	0.000000e+00	0.000000e+00	0.000000e+00	0.000000e+00	6.233200e-09	
2.146849e+02	5.352203e-08	9.999992e-01	3.746300e-01	-6.521926e-03	2.570194e+00	8.877797e-08	9.999995e-01	1.000000e+00	3.166683e-01	-6.575448e-06	2.958041e-08	0.000000e+00	0.000000e+00	0.000000e+00	0.000000e+00	6.234627e-09	
1.737712e+02	5.352203e-08	9.999995e-01	3.746323e-01	-6.518059e-03	2.570195e+00	8.879152e-08	9.999995e-01	1.000000e+00	3.166702e-01	-6.575150e-06	2.958040e-08	0.000000e+00	0.000000e+00	0.000000e+00	0.000000e+00	6.238233e-09	
1.406904e+02	5.352203e-08	1.000000e+00	3.746374e-01	-6.513210e-03	2.570197e+00	8.881241e-08	9.999995e-01	9.999995e-01	3.166743e-01	-6.579113e-06	2.958039e-08	0.000000e+00	0.000000e+00	0.000000e+00	0.000000e+00	6.243815e-09	
1.139430e+02	5.352203e-08	1.000001e+00	3.746449e-01	-6.507553e-03	2.570199e+00	8.883734e-08	9.999995e-01	9.999987e-01	3.166804e-01	-6.544155e-06	2.958037e-08	0.000000e+00	0.000000e+00	0.000000e+00	0.000000e+00	6.250497e-09	
9.231638e+01	5.352203e-08	1.000002e+00	3.746536e-01	-6.500674e-03	2.570203e+00	8.886860e-08	9.999995e-01	9.999978e-01	3.166875e-01	-6.547212e-06	2.958035e-08	0.000000e+00	0.000000e+00	0.000000e+00	0.000000e+00	6.258871e-09	
7.483022e+01	5.352203e-08	1.000003e+00	3.746607e-01	-6.492154e-03	2.570205e+00	8.892355e-08	9.999996e-01	9.999970e-01	3.166932e-01	-6.248231e-06	2.958033e-08	0.000000e+00	0.000000e+00	0.000000e+00	0.000000e+00	6.273556e-09	
6.069179e+01	5.352203e-08	1.000003e+00	3.746617e-01	-6.481674e-03	2.570206e+00	8.904601e-08	9.999996e-01	9.999967e-01	3.166939e-01	-5.433151e-06	2.958032e-08	0.000000e+00	0.000000e+00	0.000000e+00	0.000000e+00	6.306309e-09	
4.926019e+01	5.352203e-08	1.000002e+00	3.746512e-01	-6.468731e-03	2.570202e+00	8.929555e-08	9.999997e-01	9.999974e-01	3.166849e-01	-3.683089e-06	2.958034e-08	0.000000e+00	0.000000e+00	0.000000e+00	0.000000e+00	6.373443e-09	
4.001717e+01	5.352203e-08	1.000000e+00	3.746247e-01	-6.452568e-03	2.570193e+00	8.973946e-08	1.000000e+00	9.999997e-01	3.166626e-01	-3.589045e-07	2.958039e-08	0.000000e+00	0.000000e+00	0.000000e+00	0.000000e+00	6.494095e-09	
3.254374e+01	5.352203e-08	9.999968e-01	3.745817e-01	-6.432427e-03	2.570178e+00	9.050336e-08	1.000000e+00	1.000004e+00	3.166264e-01	5.607876e-06	2.958048e-08	0.000000e+00	0.000000e+00	0.000000e+00	0.000000e+00	6.705391e-09	
2.650110e+01	5.352203e-08	9.999926e-01	3.745297e-01	-6.407747e-03	2.570160e+00	9.185915e-08	1.000001e+00	1.000008e+00	3.165827e-01	1.589268e-05	2.958059e-08	0.000000e+00	0.000000e+00	0.000000e+00	0.000000e+00	7.092062e-09	
2.161534e+01	5.352203e-08	9.999893e-01	3.744879e-01	-6.378113e-03	2.570147e+00	9.439326e-08	1.000002e+00	1.000013e+00	3.165473e-01	3.312017e-05	2.958070e-08	0.000000e+00	0.000000e+00	0.000000e+00	0.000000e+00	7.855642e-09	
1.766495e+01	5.352203e-08	9.999894e-01	3.744877e-01	-6.343069e-03	2.570152e+00	9.933033e-08	1.000004e+00	1.000015e+00	3.165463e-01	6.129465e-05	2.958074e-08	0.000000e+00	0.000000e+00	0.000000e+00	0.000000e+00	9.501403e-09	
1.447088e+01	5.352203e-08	9.999960e-01	3.745661e-01	-6.301947e-03	2.570189e+00	1.090539e-07	1.000007e+00	1.000011e+00	3.166104e-01	1.063695e-04	2.958066e-08	0.000000e+00	0.000000e+00	0.000000e+00	0.000000e+00	1.338959e-08	
1.188831e+01	5.352203e-08	1.000011e+00	3.747464e-01	-6.253690e-03	2.570267e+00	1.293708e-07	1.000012e+00	1.000001e+00	3.167589e-01	1.769562e-04	2.958043e-08	0.000000e+00	0.000000e+00	0.000000e+00	0.000000e+00	2.450083e-08	
9.800175e+00	5.352203e-08	1.000034e+00	3.750092e-01	-6.196524e-03	2.570383e+00	1.806164e-07	1.000020e+00	9.999856e-01	3.169752e-01	2.852325e-04	2.958007e-08	0.000000e+00	0.000000e+00	0.000000e+00	0.000000e+00	7.016631e-08	
8.111817e+00	5.352203e-08	1.000061e+00	3.752703e-01	-6.127518e-03	2.570507e+00	3.379754e-07	1.000031e+00	9.999707e-01	3.171890e-01	4.481784e-04	2.957973e-08	0.000000e+00	0.000000e+00	0.000000e+00	0.000000e+00	2.722974e-07	
6.746697e+00	5.352203e-08	1.000082e+00	3.753889e-01	-6.042343e-03	2.570592e+00	8.237362e-07	1.000048e+00	9.999663e-01	3.172819e-01	6.901062e-04	2.957963e-08	0.000000e+00	0.000000e+00	0.000000e+00	0.000000e+00	8.093722e-07	
5.642931e+00	5.352203e-08	1.000087e+00	3.751743e-01	-5.935646e-03	2.570573e+00	2.067729e-06	1.000073e+00	9.999860e-01	3.170943e-01	1.046523e-03	2.958008e-08	0.000000e+00	0.000000e+00	0.000000e+00	0.000000e+00	2.062416e-06	
4.750481e+00	5.352203e-08	1.000061e+00	3.743414e-01	-5.802357e-03	2.570353e+00	4.680037e-06	1.000110e+00	1.000049e+00	3.163873e-01	1.564466e-03	2.958152e-08	0.000000e+00	0.000000e+00	0.000000e+00	0.000000e+00	4.672258e-06	
4.028892e+00	5.352203e-08	9.999814e-01	3.724779e-01	-5.639453e-03	2.569790e+00	8.916907e-06	1.000161e+00	1.000180e+00	3.148149e-01	2.295929e-03	2.958449e-08	0.000000e+00	0.000000e+00	0.000000e+00	0.000000e+00	8.906100e-06	
3.445452e+00	5.352203e-08	9.998348e-01	3.691947e-01	-5.446393e-03	2.568756e+00	1.396634e-05	1.000231e+00	1.000396e+00	3.120502e-01	3.290208e-03	2.958941e-08	0.000000e+00	0.000000e+00	0.000000e+00	0.000000e+00	1.395303e-05	
2.973712e+00	5.352203e-08	9.996193e-01	3.642467e-01	-5.224187e-03	2.567184e+00	1.906331e-05	1.000323e+00	1.000704e+00	3.078852e-01	4.602733e-03	2.959641e-08	0.000000e+00	0.000000e+00	0.000000e+00	0.000000e+00	1.904612e-05	
2.592287e+00	5.352203e-08	9.993489e-01	3.576024e-01	-4.975370e-03	2.565102e+00	2.364399e-05	1.000443e+00	1.001095e+00	3.022899e-01	6.316936e-03	2.960531e-08	0.000000e+00	0.000000e+00	0.000000e+00	0.000000e+00	2.362046e-05	
2.283886e+00	5.352203e-08	9.990537e-01	3.494855e-01	-4.705026e-03	2.562640e+00	2.729100e-05	1.000600e+00	1.001548e+00	2.954471e-01	8.553291e-03	2.961560e-08	0.000000e+00	0.000000e+00	0.000000e+00	0.000000e+00	2.725902e-05	
2.034529e+00	5.352203e-08	9.987701e-01	3.402689e-01	-4.420824e-03	2.559985e+00	2.981475e-05	1.000805e+00	1.002037e+00	2.876653e-01	1.146809e-02	2.962672e-08	0.000000e+00	0.000000e+00	0.000000e+00	0.000000e+00	2.977380e-05	
1.832911e+00	5.352203e-08	9.985367e-01	3.304408e-01	-4.129897e-03	2.557359e+00	3.109145e-05	1.001070e+00	1.002537e+00	2.793504e-01	1.524342e-02	2.963808e-08	0.000000e+00	0.000000e+00	0.000000e+00	0.000000e+00	3.104324e-05	
1.669894e+00	5.352203e-08	9.983864e-01	3.204931e-01	-3.833673e-03	2.554969e+00	3.124891e-05	1.001408e+00	1.003027e+00	2.709136e-01	2.006015e-02	2.964920e-08	0.000000e+00	0.000000e+00	0.000000e+00	0.000000e+00	3.119692e-05	
1.538086e+00	5.352203e-08	9.983380e-01	3.107448e-01	-3.529839e-03	2.552939e+00	3.057873e-05	1.001828e+00	1.003496e+00	2.626228e-01	2.604666e-02	2.965986e-08	0.000000e+00	0.000000e+00	0.000000e+00	0.000000e+00	3.052708e-05	
1.431513e+00	5.352203e-08	9.983862e-01	3.010575e-01	-3.220005e-03	2.551231e+00	2.947029e-05	1.002334e+00	1.003954e+00	2.543635e-01	3.324673e-02	2.967025e-08	0.000000e+00	0.000000e+00	0.000000e+00	0.000000e+00	2.942235e-05	
1.345344e+00	5.352203e-08	9.985290e-01	2.913158e-01	-2.919394e-03	2.549816e+00	2.812755e-05	1.002927e+00	1.004404e+00	2.460407e-01	4.169528e-02	2.968048e-08	0.000000e+00	0.000000e+00	0.000000e+00	0.000000e+00	2.808606e-05	
1.275671e+00	5.352203e-08	9.987662e-01	2.814645e-01	-2.657249e-03	2.548683e+00	2.668530e-05	1.003608e+00	1.004848e+00	2.376102e-01	5.139927e-02	2.969054e-08	0.000000e+00	0.000000e+00	0.000000e+00	0.000000e+00	2.665241e-05	
1.219338e+00	5.352203e-08	9.990970e-01	2.714740e-01	-2.457564e-03	2.547826e+00	2.522224e-05	1.004376e+00	1.005284e+00	2.290498e-01	6.234250e-02	2.970044e-08	0.000000e+00	0.000000e+00	0.000000e+00	0.000000e+00	2.519957e-05	
1.173790e+00	5.352203e-08	9.995192e-01	2.613078e-01	-2.313017e-03	2.547232e+00	2.377345e-05	1.005229e+00	1.005712e+00	2.203319e-01	7.448759e-02	2.971016e-08	0.000000e+00	0.000000e+00	0.000000e+00	0.000000e+00	2.376214e-05	
1.136961e+00	5.352203e-08	1.000028e+00	2.509100e-01	-2.183474e-03	2.546881e+00	2.233983e-05	1.006160e+00	1.006132e+00	2.114125e-01	8.776297e-02	2.971968e-08	0.000000e+00	0.000000e+00	0.000000e+00	0.000000e+00	2.234058e-05	
1.107184e+00	5.352203e-08	1.000617e+00	2.402046e-01	-2.026955e-03	2.546742e+00	2.089841e-05	1.007163e+00	1.006542e+00	2.022315e-01	1.020511e-01	2.972898e-08	0.000000e+00	0.000000e+00	0.000000e+00	0.000000e+00	2.091139e-05	
1.083108e+00	5.352203e-08	1.001277e+00	2.291008e-01	-1.838464e-03	2.546777e+00	1.941384e-05	1.008226e+00	1.006941e+00	1.927173e-01	1.171889e-01	2.973801e-08	0.000000e+00	0.000000e+00	0.000000e+00	0.000000e+00	1.943867e-05	
1.063641e+00	5.352203e-08	1.001996e+00	2.174966e-01	-1.659938e-03	2.546941e+00	1.783812e-05	1.009334e+00	1.007323e+00	1.827893e-01	1.329671e-01	2.974669e-08	0.000000e+00	0.000000e+00	0.000000e+00	0.000000e+00	1.787376e-05	
1.047901e+00	5.352203e-08	1.002765e+00	2.052704e-01	-1.548917e-03	2.547184e+00	1.612633e-05	1.010469e+00	1.007684e+00	1.723509e-01	1.491479e-01	2.975486e-08	0.000000e+00	0.000000e+00	0.000000e+00	0.000000e+00	1.617094e-05	
1.035174e+00	5.352203e-08	1.003573e+00	1.922506e-01	-1.532671e-03	2.547450e+00	1.423444e-05	1.011614e+00	1.008013e+00	1.612634e-01	1.654532e-01	2.976231e-08	0.000000e+00	0.000000e+00	0.000000e+00	0.000000e+00	1.428533e-05	
1.024884e+00	5.352203e-08	1.004420e+00	1.781376e-01	-1.585252e-03	2.547680e+00	1.211959e-05	1.012753e+00	1.008296e+00	1.492792e-01	1.816802e-01	2.976873e-08	0.000000e+00	0.000000e+00	0.000000e+00	0.000000e+00	1.217318e-05	
1.016564e+00	5.352203e-08	1.005371e+00	1.623269e-01	-1.632827e-03	2.547916e+00	9.739302e-06	1.013924e+00	1.008507e+00	1.358885e-01	1.983625e-01	2.977352e-08	0.000000e+00	0.000000e+00	0.000000e+00	0.000000e+00	9.791561e-06	
1.009837e+00	5.352203e-08	1.006093e+00	1.433786e-01	-1.582312e-03	2.546993e+00	7.006618e-06	1.014710e+00	1.008565e+00	1.199380e-01	2.095635e-01	2.977483e-08	0.000000e+00	0.000000e+00	0.000000e+00	0.000000e+00	7.049092e-06	
1.004398e+00	5.352203e-08	1.009357e+00	1.137834e-01	-1.300892e-03	2.550222e+00	3.900935e-06	1.017523e+00	1.008090e+00	9.489621e-02	2.496382e-01	2.976407e-08	0.000000e+00	0.000000e+00	0.000000e+00	0.000000e+00	3.936788e-06	
1.000000e+00	5.352203e-08	1.016355e+00	0.000000e+00	0.000000e+00	2.542475e+00	0.000000e+00	1.016990e+00	1.000625e+00	0.000000e+00	2.420445e-01	2.959461e-08	1.594566e-14	6.406153e-05	3.471027e+02	3.176895e+02	0.000000e+00	
9.957821e-01	-5.967887e-04	1.015924e+00	0.000000e+00	0.000000e+00	2.537626e+00	0.000000e+00	1.015051e+00	9.991404e-01	0.000000e+00	2.144124e-01	2.956084e-08	2.610267e-03	3.682339e-04	4.374198e+03	1.857828e+00	0.000000e+00	
9.909241e-01	-1.280290e-03	1.015303e+00	0.000000e+00	0.000000e+00	2.536138e+00	0.000000e+00	1.014455e+00	9.991653e-01	0.000000e+00	2.059301e-01	2.956141e-08	1.922298e-03	2.695229e-04	3.129583e+03	1.573580e+00	0.000000e+00	
9.853369e-01	-2.061293e-03	1.013566e+00	0.000000e+00	0.000000e+00	2.532451e+00	0.000000e+00	1.012981e+00	9.994224e-01	0.000000e+00	1.849228e-01	2.956726e-08	1.730885e-03	2.409878e-04	2.622553e+03	1.475104e+00	0.000000e+00	
9.789211e-01	-2.951446e-03	1.012224e+00	0.000000e+00	0.000000e+00	2.529503e+00	0.000000e+00	1.011801e+00	9.995826e-01	0.000000e+00	1.681203e-01	2.957090e-08	1.723956e-03	2.381075e-04	2.424937e+03	1.456812e+00	0.000000e+00	
9.715675e-01	-3.963073e-03	1.010895e+00	0.000000e+00	0.000000e+00	2.526369e+00	0.000000e+00	1.010548e+00	9.996568e-01	0.000000e+00	1.502643e-01	2.957259e-08	1.781184e-03	2.437767e-04	2.348919e+03	1.467324e+00	0.000000e+00	
9.631568e-01	-5.108981e-03	1.009586e+00	0.000000e+00	0.000000e+00	2.523187e+00	0.000000e+00	1.009275e+00	9.996916e-01	0.000000e+00	1.321285e-01	2.957338e-08	1.861819e-03	2.521850e-04	2.319819e+03	1.488224e+00	0.000000e+00	
9.535602e-01	-6.402178e-03	1.008258e+00	0.000000e+00	0.000000e+00	2.519916e+00	0.000000e+00	1.007967e+00	9.997112e-01	0.000000e+00	1.134926e-01	2.957383e-08	1.951540e-03	2.612533e-04	2.310427e+03	1.512986e+00	0.000000e+00	
9.426407e-01	-7.855481e-03	1.006910e+00	0.000000e+00	0.000000e+00	2.516584e+00	0.000000e+00	1.006634e+00	9.997256e-01	0.000000e+00	9.450331e-02	2.957416e-08	2.044761e-03	2.701301e-04	2.310272e+03	1.539132e+00	0.000000e+00	
9.302548e-01	-9.481022e-03	1.005538e+00	0.000000e+00	0.000000e+00	2.513185e+00	0.000000e+00	1.005274e+00	9.997376e-01	0.000000e+00	7.513643e-02	2.957443e-08	2.138951e-03	2.783929e-04	2.315120e+03	1.565581e+00	0.000000e+00	
9.162555e-01	-1.128962e-02	1.004145e+00	0.000000e+00	0.000000e+00	2.509730e+00	0.000000e+00	1.003892e+00	9.997479e-01	0.000000e+00	5.544381e-02	2.957466e-08	2.232848e-03	2.857983e-04	2.322840e+03	1.591829e+00	0.000000e+00	
9.004963e-01	-1.329003e-02	1.002733e+00	0.000000e+00	0.000000e+00	2.506223e+00	0.000000e+00	1.002489e+00	9.997571e-01	0.000000e+00	3.545881e-02	2.957487e-08	2.325829e-03	2.921931e-04	2.332344e+03	1.617643e+00	0.000000e+00	
8.828360e-01	-1.548810e-02	1.001303e+00	0.000000e+00	0.000000e+00	2.502671e+00	0.000000e+00	1.001068e+00	9.997653e-01	0.000000e+00	1.521963e-02	2.957506e-08	2.417609e-03	2.974717e-04	2.343063e+03	1.642926e+00	0.000000e+00	
8.631457e-01	-1.788578e-02	9.998585e-01	0.000000e+00	0.000000e+00	2.499078e+00	0.000000e+00	9.996312e-01	9.997727e-01	0.000000e+00	-5.253540e-03	2.957523e-08	2.508120e-03	3.015577e-04	2.354725e+03	1.667660e+00	0.000000e+00	
8.413160e-01	-2.048016e-02	9.983982e-01	0.000000e+00	0.000000e+00	2.495445e+00	0.000000e+00	9.981782e-01	9.997796e-01	0.000000e+00	-2.595428e-02	2.957538e-08	2.597467e-03	3.043920e-04	2.367204e+03	1.691885e+00	0.000000e+00	
8.172658e-01	-2.326236e-02	9.969198e-01	0.000000e+00	0.000000e+00	2.491766e+00	0.000000e+00	9.967063e-01	9.997859e-01	0.000000e+00	-4.692198e-02	2.957553e-08	2.685958e-03	3.059285e-04	2.380491e+03	1.715699e+00	0.000000e+00	
7.909518e-01	-2.621660e-02	9.954195e-01	0.000000e+00	0.000000e+00	2.488031e+00	0.000000e+00	9.952123e-01	9.997918e-01	0.000000e+00	-6.820668e-02	2.957566e-08	2.774081e-03	3.061189e-04	2.394621e+03	1.739250e+00	0.000000e+00	
7.623778e-01	-2.931924e-02	9.938910e-01	0.000000e+00	0.000000e+00	2.484224e+00	0.000000e+00	9.936895e-01	9.997973e-01	0.000000e+00	-8.989972e-02	2.957579e-08	2.862517e-03	3.048983e-04	2.409701e+03	1.762733e+00	0.000000e+00	
7.316032e-01	-3.253806e-02	9.923269e-01	0.000000e+00	0.000000e+00	2.480327e+00	0.000000e+00	9.921308e-01	9.998024e-01	0.000000e+00	-1.121059e-01	2.957590e-08	2.952115e-03	3.021634e-04	2.425863e+03	1.786380e+00	0.000000e+00	
6.987499e-01	-3.583186e-02	9.907184e-01	0.000000e+00	0.000000e+00	2.476319e+00	0.000000e+00	9.905275e-01	9.998073e-01	0.000000e+00	-1.349465e-01	2.957602e-08	3.043865e-03	2.977492e-04	2.443274e+03	1.810453e+00	0.000000e+00	
6.640066e-01	-3.915032e-02	9.890578e-01	0.000000e+00	0.000000e+00	2.472180e+00	0.000000e+00	9.888720e-01	9.998121e-01	0.000000e+00	-1.585306e-01	2.957613e-08	3.138816e-03	2.914004e-04	2.462085e+03	1.835213e+00	0.000000e+00	
6.276283e-01	-4.243463e-02	9.873373e-01	0.000000e+00	0.000000e+00	2.467891e+00	0.000000e+00	9.871565e-01	9.998168e-01	0.000000e+00	-1.829703e-01	2.957623e-08	3.238016e-03	2.827507e-04	2.482434e+03	1.860911e+00	0.000000e+00	
5.899328e-01	-4.561861e-02	9.855539e-01	0.000000e+00	0.000000e+00	2.463445e+00	0.000000e+00	9.853780e-01	9.998215e-01	0.000000e+00	-2.083071e-01	2.957634e-08	3.342360e-03	2.713008e-04	2.504360e+03	1.887741e+00	0.000000e+00	
5.512916e-01	-4.863091e-02	9.837057e-01	0.000000e+00	0.000000e+00	2.458837e+00	0.000000e+00	9.835348e-01	9.998263e-01	0.000000e+00	-2.345658e-01	2.957645e-08	3.452583e-03	2.564202e-04	2.527880e+03	1.915851e+00	0.000000e+00	
5.121166e-01	-5.139795e-02	9.817987e-01	0.000000e+00	0.000000e+00	2.454082e+00	0.000000e+00	9.816329e-01	9.998311e-01	0.000000e+00	-2.616604e-01	2.957656e-08	3.569104e-03	2.373497e-04	2.552881e+03	1.945305e+00	0.000000e+00	
4.728433e-01	-5.384781e-02	9.798409e-01	0.000000e+00	0.000000e+00	2.449200e+00	0.000000e+00	9.796802e-01	9.998360e-01	0.000000e+00	-2.894793e-01	2.957667e-08	3.692111e-03	2.132354e-04	2.579258e+03	1.976116e+00	0.000000e+00	
4.339121e-01	-5.591460e-02	9.778488e-01	0.000000e+00	0.000000e+00	2.444234e+00	0.000000e+00	9.776935e-01	9.998412e-01	0.000000e+00	-3.177812e-01	2.957679e-08	3.821411e-03	1.831553e-04	2.606786e+03	2.008217e+00	0.000000e+00	
3.957488e-01	-5.754285e-02	9.758410e-01	0.000000e+00	0.000000e+00	2.439229e+00	0.000000e+00	9.756917e-01	9.998470e-01	0.000000e+00	-3.462992e-01	2.957692e-08	3.956530e-03	1.461691e-04	2.635254e+03	2.041497e+00	0.000000e+00	
3.587470e-01	-5.869148e-02	9.738435e-01	0.000000e+00	0.000000e+00	2.434252e+00	0.000000e+00	9.737009e-01	9.998536e-01	0.000000e+00	-3.746606e-01	2.957707e-08	4.096773e-03	1.013630e-04	2.664478e+03	2.075825e+00	0.000000e+00	
3.232528e-01	-5.933656e-02	9.718817e-01	0.000000e+00	0.000000e+00	2.429366e+00	0.000000e+00	9.717465e-01	9.998609e-01	0.000000e+00	-4.025036e-01	2.957723e-08	4.241653e-03	4.788710e-05	2.694540e+03	2.111162e+00	0.000000e+00	
2.895540e-01	-5.947265e-02	9.699856e-01	0.000000e+00	0.000000e+00	2.424647e+00	0.000000e+00	9.698588e-01	9.998693e-01	0.000000e+00	-4.293951e-01	2.957743e-08	4.390812e-03	-1.505320e-05	2.725646e+03	2.147534e+00	0.000000e+00	
2.578733e-01	-5.911242e-02	9.681797e-01	0.000000e+00	0.000000e+00	2.420157e+00	0.000000e+00	9.680627e-01	9.998791e-01	0.000000e+00	-4.549833e-01	2.957765e-08	4.544047e-03	-8.822075e-05	2.758068e+03	2.185030e+00	0.000000e+00	
2.283666e-01	-5.828472e-02	9.664892e-01	0.000000e+00	0.000000e+00	2.415959e+00	0.000000e+00	9.663835e-01	9.998906e-01	0.000000e+00	-4.789059e-01	2.957791e-08	4.700966e-03	-1.723798e-04	2.791945e+03	2.223727e+00	0.000000e+00	
2.011248e-01	-5.703151e-02	9.649337e-01	0.000000e+00	0.000000e+00	2.412102e+00	0.000000e+00	9.648408e-01	9.999037e-01	0.000000e+00	-5.008835e-01	2.957821e-08	4.860697e-03	-2.683116e-04	2.827143e+03	2.263615e+00	0.000000e+00	
1.761797e-01	-5.540400e-02	9.635302e-01	0.000000e+00	0.000000e+00	2.408627e+00	0.000000e+00	9.634509e-01	9.999177e-01	0.000000e+00	-5.206837e-01	2.957853e-08	5.022026e-03	-3.768359e-04	2.863376e+03	2.304650e+00	0.000000e+00	
1.535115e-01	-5.345876e-02	9.622918e-01	0.000000e+00	0.000000e+00	2.405567e+00	0.000000e+00	9.622267e-01	9.999323e-01	0.000000e+00	-5.381242e-01	2.957886e-08	5.183740e-03	-4.988692e-04	2.900299e+03	2.346839e+00	0.000000e+00	
1.330575e-01	-5.125403e-02	9.612308e-01	0.000000e+00	0.000000e+00	2.402950e+00	0.000000e+00	9.611801e-01	9.999473e-01	0.000000e+00	-5.530337e-01	2.957920e-08	5.344735e-03	-6.354998e-04	2.937581e+03	2.390270e+00	0.000000e+00	
1.147221e-01	-4.884662e-02	9.603564e-01	0.000000e+00	0.000000e+00	2.400801e+00	0.000000e+00	9.603206e-01	9.999627e-01	0.000000e+00	-5.652788e-01	2.957955e-08	5.503819e-03	-7.880403e-04	2.974805e+03	2.435075e+00	0.000000e+00	
9.838552e-02	-4.628967e-02	9.596830e-01	0.000000e+00	0.000000e+00	2.399156e+00	0.000000e+00	9.596624e-01	9.999785e-01	0.000000e+00	-5.746549e-01	2.957991e-08	5.659643e-03	-9.580794e-04	3.011548e+03	2.481442e+00	0.000000e+00	
8.391231e-02	-4.363107e-02	9.592299e-01	0.000000e+00	0.000000e+00	2.398062e+00	0.000000e+00	9.592249e-01	9.999948e-01	0.000000e+00	-5.808876e-01	2.958028e-08	5.810336e-03	-1.147468e-03	3.047324e+03	2.529555e+00	0.000000e+00	
7.115831e-02	-4.091264e-02	9.590229e-01	0.000000e+00	0.000000e+00	2.397585e+00	0.000000e+00	9.590338e-01	1.000011e+00	0.000000e+00	-5.836098e-01	2.958066e-08	5.953191e-03	-1.358259e-03	3.081572e+03	2.579550e+00	0.000000e+00	
5.997667e-02	-3.816999e-02	9.590998e-01	0.000000e+00	0.000000e+00	2.397817e+00	0.000000e+00	9.591267e-01	1.000028e+00	0.000000e+00	-5.822871e-01	2.958104e-08	6.084381e-03	-1.592588e-03	3.113741e+03	2.631501e+00	0.000000e+00	
5.022241e-02	-3.543267e-02	9.595134e-01	0.000000e+00	0.000000e+00	2.398890e+00	0.000000e+00	9.595560e-01	1.000044e+00	0.000000e+00	-5.761714e-01	2.958141e-08	6.198614e-03	-1.852451e-03	3.143408e+03	2.685374e+00	0.000000e+00	
4.175588e-02	-3.272472e-02	9.603331e-01	0.000000e+00	0.000000e+00	2.400976e+00	0.000000e+00	9.603905e-01	1.000060e+00	0.000000e+00	-5.642827e-01	2.958176e-08	6.288986e-03	-2.139412e-03	3.170447e+03	2.741029e+00	0.000000e+00	
3.444509e-02	-3.006547e-02	9.616464e-01	0.000000e+00	0.000000e+00	2.404294e+00	0.000000e+00	9.617177e-01	1.000074e+00	0.000000e+00	-5.453751e-01	2.958209e-08	6.347519e-03	-2.454431e-03	3.195271e+03	2.798353e+00	0.000000e+00	
2.816724e-02	-2.747033e-02	9.635593e-01	0.000000e+00	0.000000e+00	2.409116e+00	0.000000e+00	9.636465e-01	1.000091e+00	0.000000e+00	-5.178970e-01	2.958246e-08	6.366455e-03	-2.798004e-03	3.218887e+03	2.857548e+00	0.000000e+00	
2.280944e-02	-2.495170e-02	9.662035e-01	0.000000e+00	0.000000e+00	2.415778e+00	0.000000e+00	9.663111e-01	1.000111e+00	0.000000e+00	-4.799369e-01	2.958293e-08	6.336560e-03	-3.169071e-03	3.242948e+03	2.918757e+00	0.000000e+00	
1.826886e-02	-2.251990e-02	9.697319e-01	0.000000e+00	0.000000e+00	2.424650e+00	0.000000e+00	9.698600e-01	1.000132e+00	0.000000e+00	-4.293791e-01	2.958340e-08	6.242526e-03	-3.561265e-03	3.270062e+03	2.980890e+00	0.000000e+00	
1.445220e-02	-2.018403e-02	9.743029e-01	0.000000e+00	0.000000e+00	2.436100e+00	0.000000e+00	9.744401e-01	1.000141e+00	0.000000e+00	-3.641304e-01	2.958360e-08	6.063917e-03	-3.960077e-03	3.304223e+03	3.041363e+00	0.000000e+00	
1.127516e-02	-1.795263e-02	9.800476e-01	0.000000e+00	0.000000e+00	2.450423e+00	0.000000e+00	9.801693e-01	1.000124e+00	0.000000e+00	-2.825113e-01	2.958322e-08	5.782017e-03	-4.342787e-03	3.350685e+03	3.096875e+00	0.000000e+00	
8.660978e-03	-1.583433e-02	9.870161e-01	0.000000e+00	0.000000e+00	2.467714e+00	0.000000e+00	9.870854e-01	1.000070e+00	0.000000e+00	-1.839825e-01	2.958200e-08	5.385825e-03	-4.679183e-03	3.415147e+03	3.143727e+00	0.000000e+00	
6.539262e-03	-1.383810e-02	9.951413e-01	0.000000e+00	0.000000e+00	2.487778e+00	0.000000e+00	9.951111e-01	9.999696e-01	0.000000e+00	-6.964776e-02	2.957971e-08	4.877284e-03	-4.934887e-03	3.502783e+03	3.178319e+00	0.000000e+00	
4.844550e-03	-1.197282e-02	1.004191e+00	0.000000e+00	0.000000e+00	2.510034e+00	0.000000e+00	1.004014e+00	9.998232e-01	0.000000e+00	5.717939e-02	2.957638e-08	4.275673e-03	-5.078002e-03	3.616407e+03	3.197711e+00	0.000000e+00	
3.515320e-03	-1.024671e-02	1.013755e+00	0.000000e+00	0.000000e+00	2.533511e+00	0.000000e+00	1.013404e+00	9.996537e-01	0.000000e+00	1.909601e-01	2.957252e-08	3.617144e-03	-5.087451e-03	3.752958e+03	3.200237e+00	0.000000e+00	
2.493434e-03	-8.666020e-03	1.023314e+00	0.000000e+00	0.000000e+00	2.557014e+00	0.000000e+00	1.022806e+00	9.995037e-01	0.000000e+00	3.248933e-01	2.956911e-08	2.948384e-03	-4.960310e-03	3.902452e+03	3.186311e+00	0.000000e+00	
1.724623e-03	-7.234077e-03	1.032375e+00	0.000000e+00	0.000000e+00	2.579341e+00	0.000000e+00	1.031737e+00	9.993814e-01	0.000000e+00	4.521227e-01	2.956632e-08	2.319152e-03	-4.720410e-03	4.067148e+03	3.161071e+00	0.000000e+00	
1.159193e-03	-5.950300e-03	1.040543e+00	0.000000e+00	0.000000e+00	2.599497e+00	0.000000e+00	1.039799e+00	9.992848e-01	0.000000e+00	5.669821e-01	2.956413e-08	1.760082e-03	-4.391717e-03	4.240012e+03	3.126884e+00	0.000000e+00	
7.531893e-04	-4.810177e-03	1.047583e+00	0.000000e+00	0.000000e+00	2.616887e+00	0.000000e+00	1.046755e+00	9.992090e-01	0.000000e+00	6.660754e-01	2.956240e-08	1.286695e-03	-3.998690e-03	4.406632e+03	3.084594e+00	0.000000e+00	
4.691284e-04	-3.805771e-03	1.053422e+00	0.000000e+00	0.000000e+00	2.631320e+00	0.000000e+00	1.052528e+00	9.991517e-01	0.000000e+00	7.483232e-01	2.956110e-08	9.033746e-04	-3.567369e-03	4.549869e+03	3.035061e+00	0.000000e+00	
2.762360e-04	-2.926719e-03	1.058105e+00	0.000000e+00	0.000000e+00	2.642927e+00	0.000000e+00	1.057171e+00	9.991176e-01	0.000000e+00	8.144650e-01	2.956032e-08	6.060197e-04	-3.123594e-03	4.653853e+03	2.979891e+00	0.000000e+00	
1.500786e-04	-2.161300e-03	1.061755e+00	0.000000e+00	0.000000e+00	2.652043e+00	0.000000e+00	1.060817e+00	9.991169e-01	0.000000e+00	8.664089e-01	2.956031e-08	3.846614e-04	-2.689456e-03	4.705738e+03	2.921121e+00	0.000000e+00	
7.180327e-05	-1.497377e-03	1.064510e+00	0.000000e+00	0.000000e+00	2.659044e+00	0.000000e+00	1.063618e+00	9.991612e-01	0.000000e+00	9.063041e-01	2.956131e-08	2.263975e-04	-2.281552e-03	4.696353e+03	2.860897e+00	0.000000e+00	
2.721276e-05	-9.231024e-04	1.066560e+00	0.000000e+00	0.000000e+00	2.664424e+00	0.000000e+00	1.065770e+00	9.992592e-01	0.000000e+00	9.369630e-01	2.956354e-08	1.177222e-04	-1.909002e-03	4.617312e+03	2.800178e+00	0.000000e+00	
5.818606e-06	-4.273592e-04	1.067872e+00	0.000000e+00	0.000000e+00	2.668031e+00	0.000000e+00	1.067212e+00	9.993819e-01	0.000000e+00	9.575178e-01	2.956634e-08	4.658594e-05	-1.580273e-03	4.469332e+03	2.742569e+00	0.000000e+00	
0.000000e+00	0.000000e+00	1.069081e+00	0.000000e+00	0.000000e+00	2.671340e+00	0.000000e+00	1.068536e+00	9.994901e-01	0.000000e+00	9.763717e-01	2.956880e-08	-3.353611e-16	-1.280446e-03	4.254048e+03	2.660092e+00	0.000000e+00	
5.818606e-06	4.273592e-04	1.070264e+00	0.000000e+00	0.000000e+00	2.674182e+00	0.000000e+00	1.069673e+00	9.994477e-01	0.000000e+00	9.925708e-01	2.956783e-08	-3.342939e-05	-1.133981e-03	4.600075e+03	2.325724e+00	0.000000e+00	
2.721276e-05	9.231024e-04	1.071378e+00	0.000000e+00	0.000000e+00	2.676475e+00	0.000000e+00	1.070590e+00	9.992641e-01	0.000000e+00	1.005635e+00	2.956366e-08	-5.659651e-05	-9.177779e-04	4.870116e+03	1.945936e+00	0.000000e+00	
7.180327e-05	1.497377e-03	1.072414e+00	0.000000e+00	0.000000e+00	2.678553e+00	0.000000e+00	1.071421e+00	9.990743e-01	0.000000e+00	1.017474e+00	2.955934e-08	-6.263110e-05	-6.311735e-04	5.043088e+03	1.510417e+00	0.000000e+00	
1.500786e-04	2.161300e-03	1.073062e+00	0.000000e+00	0.000000e+00	2.679829e+00	0.000000e+00	1.071932e+00	9.989462e-01	0.000000e+00	1.024747e+00	2.955642e-08	-3.929938e-05	-2.747713e-04	5.137131e+03	9.387727e-01	0.000000e+00	
2.762360e-04	2.926719e-03	1.073196e+00	0.000000e+00	0.000000e+00	2.680017e+00	0.000000e+00	1.072007e+00	9.988921e-01	0.000000e+00	1.025816e+00	2.955519e-08	2.806217e-05	1.446402e-04	5.160168e+03	6.459044e-01	0.000000e+00	
4.691284e-04	3.805771e-03	1.072616e+00	0.000000e+00	0.000000e+00	2.678569e+00	0.000000e+00	1.071428e+00	9.988923e-01	0.000000e+00	1.017567e+00	2.955520e-08	1.556968e-04	6.148367e-04	5.118713e+03	1.271689e+00	0.000000e+00	
7.531893e-04	4.810177e-03	1.071114e+00	0.000000e+00	0.000000e+00	2.674908e+00	0.000000e+00	1.069963e+00	9.989253e-01	0.000000e+00	9.967037e-01	2.955595e-08	3.586305e-04	1.114524e-03	5.017945e+03	1.647033e+00	0.000000e+00	
1.159193e-03	5.950300e-03	1.068478e+00	0.000000e+00	0.000000e+00	2.668455e+00	0.000000e+00	1.067382e+00	9.989743e-01	0.000000e+00	9.599309e-01	2.955706e-08	6.467270e-04	1.613699e-03	4.866001e+03	1.921154e+00	0.000000e+00	
1.724623e-03	7.234077e-03	1.064552e+00	0.000000e+00	0.000000e+00	2.658794e+00	0.000000e+00	1.063518e+00	9.990283e-01	0.000000e+00	9.048801e-01	2.955829e-08	1.020414e-03	2.076955e-03	4.675821e+03	2.129809e+00	0.000000e+00	
2.493434e-03	8.666020e-03	1.059301e+00	0.000000e+00	0.000000e+00	2.645822e+00	0.000000e+00	1.058329e+00	9.990827e-01	0.000000e+00	8.309621e-01	2.955953e-08	1.468431e-03	2.470463e-03	4.465759e+03	2.288595e+00	0.000000e+00	
3.515320e-03	1.024671e-02	1.052852e+00	0.000000e+00	0.000000e+00	2.629871e+00	0.000000e+00	1.051948e+00	9.991416e-01	0.000000e+00	7.400646e-01	2.956087e-08	1.969643e-03	2.770269e-03	4.257721e+03	2.407583e+00	0.000000e+00	
4.844550e-03	1.197282e-02	1.045493e+00	0.000000e+00	0.000000e+00	2.611691e+00	0.000000e+00	1.044677e+00	9.992187e-01	0.000000e+00	6.364682e-01	2.956262e-08	2.498854e-03	2.967763e-03	4.072877e+03	2.495525e+00	0.000000e+00	
6.539262e-03	1.383810e-02	1.037619e+00	0.000000e+00	0.000000e+00	2.592310e+00	0.000000e+00	1.036924e+00	9.993304e-01	0.000000e+00	5.260245e-01	2.956516e-08	3.031474e-03	3.067277e-03	3.923640e+03	2.559915e+00	0.000000e+00	
8.660978e-03	1.583433e-02	1.029645e+00	0.000000e+00	0.000000e+00	2.572773e+00	0.000000e+00	1.029109e+00	9.994794e-01	0.000000e+00	4.146963e-01	2.956855e-08	3.540962e-03	3.076374e-03	3.805315e+03	2.604705e+00	0.000000e+00	
1.127516e-02	1.795263e-02	1.021969e+00	0.000000e+00	0.000000e+00	2.553961e+00	0.000000e+00	1.021585e+00	9.996237e-01	0.000000e+00	3.074972e-01	2.957184e-08	4.002516e-03	3.006230e-03	3.712463e+03	2.632165e+00	0.000000e+00	
1.445220e-02	2.018403e-02	1.014871e+00	0.000000e+00	0.000000e+00	2.536507e+00	0.000000e+00	1.014603e+00	9.997360e-01	0.000000e+00	2.080333e-01	2.957439e-08	4.396890e-03	2.871415e-03	3.634971e+03	2.643979e+00	0.000000e+00	
1.826886e-02	2.251990e-02	1.008498e+00	0.000000e+00	0.000000e+00	2.520775e+00	0.000000e+00	1.008310e+00	9.998134e-01	0.000000e+00	1.183839e-01	2.957615e-08	4.714392e-03	2.689488e-03	3.564100e+03	2.642389e+00	0.000000e+00	
2.280944e-02	2.495170e-02	1.002891e+00	0.000000e+00	0.000000e+00	2.506888e+00	0.000000e+00	1.002755e+00	9.998646e-01	0.000000e+00	3.924950e-02	2.957732e-08	4.955382e-03	2.478309e-03	3.495511e+03	2.630175e+00	0.000000e+00	
2.816724e-02	2.747033e-02	9.980279e-01	0.000000e+00	0.000000e+00	2.494818e+00	0.000000e+00	9.979272e-01	9.998990e-01	0.000000e+00	-2.952980e-02	2.957810e-08	5.126738e-03	2.253159e-03	3.428092e+03	2.610125e+00	0.000000e+00	