TITLE = "Visualization of the solution"
VARIABLES = "x","y","Density","Momentum_x","Momentum_y","Energy","Nu_Tilde","Pressure","Temperature","Mach","Pressure_Coefficient","Laminar_Viscosity","Skin_Friction_Coefficient_x","Skin_Friction_Coefficient_y","Heat_Flux","Y_Plus","Eddy_Viscosity"
ZONE NODES= 128, ELEMENTS= 128, DATAPACKING=POINT, ZONETYPE=FELINESEG
1.000000e+00	5.352203e-08	1.016382e+00	0.000000e+00	0.000000e+00	2.542545e+00	0.000000e+00	1.017018e+00	1.000626e+00	0.000000e+00	2.424436e-01	2.959464e-08	6.222975e-15	2.500063e-05	3.471173e+02	1.984654e+02	0.000000e+00	
9.957821e-01	-5.967887e-04	1.015964e+00	0.000000e+00	0.000000e+00	2.537727e+00	0.000000e+00	1.015091e+00	9.991408e-01	0.000000e+00	2.149878e-01	2.956085e-08	2.658265e-03	3.750051e-04	4.381065e+03	1.874868e+00	0.000000e+00	
9.909241e-01	-1.280290e-03	1.015368e+00	0.000000e+00	0.000000e+00	2.536304e+00	0.000000e+00	1.014522e+00	9.991669e-01	0.000000e+00	2.068776e-01	2.956144e-08	1.978916e-03	2.774612e-04	3.135631e+03	1.596635e+00	0.000000e+00	
9.853369e-01	-2.061293e-03	1.013614e+00	0.000000e+00	0.000000e+00	2.532577e+00	0.000000e+00	1.013031e+00	9.994245e-01	0.000000e+00	1.856398e-01	2.956731e-08	1.791827e-03	2.494727e-04	2.628461e+03	1.500881e+00	0.000000e+00	
9.789211e-01	-2.951446e-03	1.012274e+00	0.000000e+00	0.000000e+00	2.529636e+00	0.000000e+00	1.011855e+00	9.995852e-01	0.000000e+00	1.688823e-01	2.957096e-08	1.786957e-03	2.468089e-04	2.430717e+03	1.483226e+00	0.000000e+00	
9.715675e-01	-3.963073e-03	1.010952e+00	0.000000e+00	0.000000e+00	2.526520e+00	0.000000e+00	1.010608e+00	9.996598e-01	0.000000e+00	1.511240e-01	2.957266e-08	1.844777e-03	2.524802e-04	2.354302e+03	1.493327e+00	0.000000e+00	
9.631568e-01	-5.108981e-03	1.009659e+00	0.000000e+00	0.000000e+00	2.523378e+00	0.000000e+00	1.009351e+00	9.996950e-01	0.000000e+00	1.332193e-01	2.957346e-08	1.924912e-03	2.607310e-04	2.324400e+03	1.513281e+00	0.000000e+00	
9.535602e-01	-6.402178e-03	1.008354e+00	0.000000e+00	0.000000e+00	2.520166e+00	0.000000e+00	1.008066e+00	9.997148e-01	0.000000e+00	1.149163e-01	2.957391e-08	2.013294e-03	2.695203e-04	2.313952e+03	1.536807e+00	0.000000e+00	
9.426407e-01	-7.855481e-03	1.007037e+00	0.000000e+00	0.000000e+00	2.516911e+00	0.000000e+00	1.006764e+00	9.997294e-01	0.000000e+00	9.636633e-02	2.957424e-08	2.104512e-03	2.780237e-04	2.312568e+03	1.561551e+00	0.000000e+00	
9.302548e-01	-9.481022e-03	1.005703e+00	0.000000e+00	0.000000e+00	2.513606e+00	0.000000e+00	1.005442e+00	9.997414e-01	0.000000e+00	7.753430e-02	2.957452e-08	2.196175e-03	2.858408e-04	2.316077e+03	1.586510e+00	0.000000e+00	
9.162555e-01	-1.128962e-02	1.004354e+00	0.000000e+00	0.000000e+00	2.510261e+00	0.000000e+00	1.004104e+00	9.997518e-01	0.000000e+00	5.847171e-02	2.957475e-08	2.287140e-03	2.927475e-04	2.322388e+03	1.611228e+00	0.000000e+00	
9.004963e-01	-1.329003e-02	1.002992e+00	0.000000e+00	0.000000e+00	2.506880e+00	0.000000e+00	1.002752e+00	9.997609e-01	0.000000e+00	3.920706e-02	2.957496e-08	2.376894e-03	2.986083e-04	2.330461e+03	1.635511e+00	0.000000e+00	
8.828360e-01	-1.548810e-02	1.001620e+00	0.000000e+00	0.000000e+00	2.503471e+00	0.000000e+00	1.001388e+00	9.997691e-01	0.000000e+00	1.977690e-02	2.957515e-08	2.465247e-03	3.033333e-04	2.339769e+03	1.659290e+00	0.000000e+00	
8.631457e-01	-1.788578e-02	1.000237e+00	0.000000e+00	0.000000e+00	2.500035e+00	0.000000e+00	1.000014e+00	9.997765e-01	0.000000e+00	1.987838e-04	2.957531e-08	2.552208e-03	3.068586e-04	2.350074e+03	1.682568e+00	0.000000e+00	
8.413160e-01	-2.048016e-02	9.988461e-01	0.000000e+00	0.000000e+00	2.496574e+00	0.000000e+00	9.986297e-01	9.997833e-01	0.000000e+00	-1.952148e-02	2.957547e-08	2.637938e-03	3.091347e-04	2.361266e+03	1.705392e+00	0.000000e+00	
8.172658e-01	-2.326236e-02	9.974427e-01	0.000000e+00	0.000000e+00	2.493082e+00	0.000000e+00	9.972328e-01	9.997896e-01	0.000000e+00	-3.942124e-02	2.957561e-08	2.722779e-03	3.101224e-04	2.373342e+03	1.727867e+00	0.000000e+00	
7.909518e-01	-2.621660e-02	9.960239e-01	0.000000e+00	0.000000e+00	2.489550e+00	0.000000e+00	9.958201e-01	9.997954e-01	0.000000e+00	-5.954683e-02	2.957574e-08	2.807230e-03	3.097769e-04	2.386333e+03	1.750137e+00	0.000000e+00	
7.623778e-01	-2.931924e-02	9.945837e-01	0.000000e+00	0.000000e+00	2.485964e+00	0.000000e+00	9.943857e-01	9.998008e-01	0.000000e+00	-7.998249e-02	2.957587e-08	2.891965e-03	3.080350e-04	2.400334e+03	1.772389e+00	0.000000e+00	
7.316032e-01	-3.253806e-02	9.931155e-01	0.000000e+00	0.000000e+00	2.482307e+00	0.000000e+00	9.929227e-01	9.998060e-01	0.000000e+00	-1.008236e-01	2.957598e-08	2.977810e-03	3.047935e-04	2.415467e+03	1.794845e+00	0.000000e+00	
6.987499e-01	-3.583186e-02	9.916113e-01	0.000000e+00	0.000000e+00	2.478559e+00	0.000000e+00	9.914237e-01	9.998108e-01	0.000000e+00	-1.221793e-01	2.957610e-08	3.065722e-03	2.998872e-04	2.431887e+03	1.817755e+00	0.000000e+00	
6.640066e-01	-3.915032e-02	9.900645e-01	0.000000e+00	0.000000e+00	2.474705e+00	0.000000e+00	9.898818e-01	9.998155e-01	0.000000e+00	-1.441447e-01	2.957620e-08	3.156714e-03	2.930619e-04	2.449741e+03	1.841370e+00	0.000000e+00	
6.276283e-01	-4.243463e-02	9.884683e-01	0.000000e+00	0.000000e+00	2.470726e+00	0.000000e+00	9.882906e-01	9.998201e-01	0.000000e+00	-1.668144e-01	2.957631e-08	3.251792e-03	2.839537e-04	2.469170e+03	1.865928e+00	0.000000e+00	
5.899328e-01	-4.561861e-02	9.868211e-01	0.000000e+00	0.000000e+00	2.466620e+00	0.000000e+00	9.866481e-01	9.998248e-01	0.000000e+00	-1.902125e-01	2.957641e-08	3.351807e-03	2.720676e-04	2.490218e+03	1.891617e+00	0.000000e+00	
5.512916e-01	-4.863091e-02	9.851223e-01	0.000000e+00	0.000000e+00	2.462386e+00	0.000000e+00	9.849543e-01	9.998294e-01	0.000000e+00	-2.143435e-01	2.957652e-08	3.457431e-03	2.567802e-04	2.512904e+03	1.918571e+00	0.000000e+00	
5.121166e-01	-5.139795e-02	9.833794e-01	0.000000e+00	0.000000e+00	2.458041e+00	0.000000e+00	9.832163e-01	9.998341e-01	0.000000e+00	-2.391027e-01	2.957663e-08	3.569015e-03	2.373438e-04	2.537119e+03	1.946842e+00	0.000000e+00	
4.728433e-01	-5.384781e-02	9.816017e-01	0.000000e+00	0.000000e+00	2.453609e+00	0.000000e+00	9.814436e-01	9.998390e-01	0.000000e+00	-2.643565e-01	2.957674e-08	3.686671e-03	2.129213e-04	2.562760e+03	1.976428e+00	0.000000e+00	
4.339121e-01	-5.591460e-02	9.798071e-01	0.000000e+00	0.000000e+00	2.449136e+00	0.000000e+00	9.796546e-01	9.998444e-01	0.000000e+00	-2.898435e-01	2.957686e-08	3.810102e-03	1.826133e-04	2.589594e+03	2.007245e+00	0.000000e+00	
3.957488e-01	-5.754285e-02	9.780160e-01	0.000000e+00	0.000000e+00	2.444674e+00	0.000000e+00	9.778696e-01	9.998503e-01	0.000000e+00	-3.152732e-01	2.957699e-08	3.938644e-03	1.455083e-04	2.617356e+03	2.039140e+00	0.000000e+00	
3.587470e-01	-5.869148e-02	9.762559e-01	0.000000e+00	0.000000e+00	2.440290e+00	0.000000e+00	9.761161e-01	9.998569e-01	0.000000e+00	-3.402530e-01	2.957714e-08	4.071741e-03	1.007437e-04	2.646046e+03	2.072030e+00	0.000000e+00	
3.232528e-01	-5.933656e-02	9.745536e-01	0.000000e+00	0.000000e+00	2.436053e+00	0.000000e+00	9.744211e-01	9.998641e-01	0.000000e+00	-3.644005e-01	2.957731e-08	4.208705e-03	4.751513e-05	2.675691e+03	2.105830e+00	0.000000e+00	
2.895540e-01	-5.947265e-02	9.729406e-01	0.000000e+00	0.000000e+00	2.432040e+00	0.000000e+00	9.728161e-01	9.998720e-01	0.000000e+00	-3.872659e-01	2.957749e-08	4.349233e-03	-1.491065e-05	2.706641e+03	2.140590e+00	0.000000e+00	
2.578733e-01	-5.911242e-02	9.714425e-01	0.000000e+00	0.000000e+00	2.428318e+00	0.000000e+00	9.713271e-01	9.998812e-01	0.000000e+00	-4.084780e-01	2.957770e-08	4.492895e-03	-8.722766e-05	2.739141e+03	2.176352e+00	0.000000e+00	
2.283666e-01	-5.828472e-02	9.700858e-01	0.000000e+00	0.000000e+00	2.424952e+00	0.000000e+00	9.699807e-01	9.998917e-01	0.000000e+00	-4.276585e-01	2.957794e-08	4.639162e-03	-1.701135e-04	2.773376e+03	2.213165e+00	0.000000e+00	
2.011248e-01	-5.703151e-02	9.688914e-01	0.000000e+00	0.000000e+00	2.421995e+00	0.000000e+00	9.687981e-01	9.999037e-01	0.000000e+00	-4.445070e-01	2.957821e-08	4.787125e-03	-2.642504e-04	2.809312e+03	2.251020e+00	0.000000e+00	
1.761797e-01	-5.540400e-02	9.678778e-01	0.000000e+00	0.000000e+00	2.419493e+00	0.000000e+00	9.677970e-01	9.999165e-01	0.000000e+00	-4.587683e-01	2.957850e-08	4.935525e-03	-3.703452e-04	2.846770e+03	2.289867e+00	0.000000e+00	
1.535115e-01	-5.345876e-02	9.670600e-01	0.000000e+00	0.000000e+00	2.417480e+00	0.000000e+00	9.669921e-01	9.999297e-01	0.000000e+00	-4.702356e-01	2.957880e-08	5.083018e-03	-4.891760e-04	2.885510e+03	2.329683e+00	0.000000e+00	
1.330575e-01	-5.125403e-02	9.664524e-01	0.000000e+00	0.000000e+00	2.415994e+00	0.000000e+00	9.663975e-01	9.999431e-01	0.000000e+00	-4.787066e-01	2.957911e-08	5.228327e-03	-6.216586e-04	2.925323e+03	2.370517e+00	0.000000e+00	
1.147221e-01	-4.884662e-02	9.660666e-01	0.000000e+00	0.000000e+00	2.415062e+00	0.000000e+00	9.660247e-01	9.999566e-01	0.000000e+00	-4.840168e-01	2.957941e-08	5.370051e-03	-7.688873e-04	2.965940e+03	2.412453e+00	0.000000e+00	
9.838552e-02	-4.628967e-02	9.659193e-01	0.000000e+00	0.000000e+00	2.414726e+00	0.000000e+00	9.658904e-01	9.999701e-01	0.000000e+00	-4.859307e-01	2.957972e-08	5.506608e-03	-9.321732e-04	3.007116e+03	2.455620e+00	0.000000e+00	
8.391231e-02	-4.363107e-02	9.660321e-01	0.000000e+00	0.000000e+00	2.415040e+00	0.000000e+00	9.660159e-01	9.999833e-01	0.000000e+00	-4.841417e-01	2.958002e-08	5.635888e-03	-1.113017e-03	3.048584e+03	2.500131e+00	0.000000e+00	
7.115831e-02	-4.091264e-02	9.664326e-01	0.000000e+00	0.000000e+00	2.416072e+00	0.000000e+00	9.664289e-01	9.999962e-01	0.000000e+00	-4.782589e-01	2.958031e-08	5.754950e-03	-1.313029e-03	3.090038e+03	2.546046e+00	0.000000e+00	
5.997667e-02	-3.816999e-02	9.671596e-01	0.000000e+00	0.000000e+00	2.417919e+00	0.000000e+00	9.671675e-01	1.000008e+00	0.000000e+00	-4.677368e-01	2.958058e-08	5.859766e-03	-1.533795e-03	3.131200e+03	2.593339e+00	0.000000e+00	
5.022241e-02	-3.543267e-02	9.682658e-01	0.000000e+00	0.000000e+00	2.420710e+00	0.000000e+00	9.682839e-01	1.000019e+00	0.000000e+00	-4.518318e-01	2.958082e-08	5.944884e-03	-1.776624e-03	3.171915e+03	2.641858e+00	0.000000e+00	
4.175588e-02	-3.272472e-02	9.698184e-01	0.000000e+00	0.000000e+00	2.424611e+00	0.000000e+00	9.698443e-01	1.000027e+00	0.000000e+00	-4.296025e-01	2.958101e-08	6.003205e-03	-2.042194e-03	3.212240e+03	2.691288e+00	0.000000e+00	
3.444509e-02	-3.006547e-02	9.718995e-01	0.000000e+00	0.000000e+00	2.429826e+00	0.000000e+00	9.719302e-01	1.000032e+00	0.000000e+00	-3.998863e-01	2.958112e-08	6.026258e-03	-2.330207e-03	3.252633e+03	2.741205e+00	0.000000e+00	
2.816724e-02	-2.747033e-02	9.746061e-01	0.000000e+00	0.000000e+00	2.436598e+00	0.000000e+00	9.746393e-01	1.000034e+00	0.000000e+00	-3.612914e-01	2.958118e-08	6.005126e-03	-2.639203e-03	3.294059e+03	2.791258e+00	0.000000e+00	
2.280944e-02	-2.495170e-02	9.780511e-01	0.000000e+00	0.000000e+00	2.445215e+00	0.000000e+00	9.780858e-01	1.000035e+00	0.000000e+00	-3.121925e-01	2.958121e-08	5.930122e-03	-2.965801e-03	3.338012e+03	2.841023e+00	0.000000e+00	
1.826886e-02	-2.251990e-02	9.823561e-01	0.000000e+00	0.000000e+00	2.455969e+00	0.000000e+00	9.823876e-01	1.000032e+00	0.000000e+00	-2.509084e-01	2.958113e-08	5.788112e-03	-3.302029e-03	3.386462e+03	2.889191e+00	0.000000e+00	
1.445220e-02	-2.018403e-02	9.876375e-01	0.000000e+00	0.000000e+00	2.469129e+00	0.000000e+00	9.876515e-01	1.000014e+00	0.000000e+00	-1.759183e-01	2.958072e-08	5.563255e-03	-3.633116e-03	3.442013e+03	2.933257e+00	0.000000e+00	
1.127516e-02	-1.795263e-02	9.939766e-01	0.000000e+00	0.000000e+00	2.484862e+00	0.000000e+00	9.939448e-01	9.999681e-01	0.000000e+00	-8.626278e-02	2.957967e-08	5.241445e-03	-3.936771e-03	3.508117e+03	2.969793e+00	0.000000e+00	
8.660978e-03	-1.583433e-02	1.001366e+00	0.000000e+00	0.000000e+00	2.503117e+00	0.000000e+00	1.001247e+00	9.998810e-01	0.000000e+00	1.776273e-02	2.957769e-08	4.817046e-03	-4.185030e-03	3.588842e+03	2.995068e+00	0.000000e+00	
6.539262e-03	-1.383810e-02	1.009674e+00	0.000000e+00	0.000000e+00	2.523549e+00	0.000000e+00	1.009420e+00	9.997481e-01	0.000000e+00	1.341935e-01	2.957467e-08	4.298454e-03	-4.349220e-03	3.688566e+03	3.005985e+00	0.000000e+00	
4.844550e-03	-1.197282e-02	1.018606e+00	0.000000e+00	0.000000e+00	2.545455e+00	0.000000e+00	1.018182e+00	9.995839e-01	0.000000e+00	2.590219e-01	2.957093e-08	3.710320e-03	-4.406561e-03	3.810162e+03	3.000665e+00	0.000000e+00	
3.515320e-03	-1.024671e-02	1.027718e+00	0.000000e+00	0.000000e+00	2.567829e+00	0.000000e+00	1.027132e+00	9.994294e-01	0.000000e+00	3.865234e-01	2.956742e-08	3.088926e-03	-4.344522e-03	3.949757e+03	2.978162e+00	0.000000e+00	
2.493434e-03	-8.666020e-03	1.036525e+00	0.000000e+00	0.000000e+00	2.589520e+00	0.000000e+00	1.035808e+00	9.993085e-01	0.000000e+00	5.101248e-01	2.956467e-08	2.478859e-03	-4.170390e-03	4.109730e+03	2.940850e+00	0.000000e+00	
1.724623e-03	-7.234077e-03	1.044591e+00	0.000000e+00	0.000000e+00	2.609432e+00	0.000000e+00	1.043773e+00	9.992168e-01	0.000000e+00	6.235963e-01	2.956258e-08	1.914766e-03	-3.897323e-03	4.287625e+03	2.889595e+00	0.000000e+00	
1.159193e-03	-5.950300e-03	1.051605e+00	0.000000e+00	0.000000e+00	2.626762e+00	0.000000e+00	1.050705e+00	9.991439e-01	0.000000e+00	7.223488e-01	2.956092e-08	1.419615e-03	-3.542190e-03	4.469849e+03	2.823410e+00	0.000000e+00	
7.531893e-04	-4.810177e-03	1.057417e+00	0.000000e+00	0.000000e+00	2.641119e+00	0.000000e+00	1.056448e+00	9.990832e-01	0.000000e+00	8.041633e-01	2.955954e-08	1.006684e-03	-3.128493e-03	4.637527e+03	2.741434e+00	0.000000e+00	
4.691284e-04	-3.805771e-03	1.062025e+00	0.000000e+00	0.000000e+00	2.652504e+00	0.000000e+00	1.061002e+00	9.990363e-01	0.000000e+00	8.690371e-01	2.955847e-08	6.797739e-04	-2.684384e-03	4.772223e+03	2.643751e+00	0.000000e+00	
2.762360e-04	-2.926719e-03	1.065529e+00	0.000000e+00	0.000000e+00	2.661191e+00	0.000000e+00	1.064476e+00	9.990119e-01	0.000000e+00	9.185400e-01	2.955792e-08	4.340879e-04	-2.237410e-03	4.858892e+03	2.531044e+00	0.000000e+00	
1.500786e-04	-2.161300e-03	1.068087e+00	0.000000e+00	0.000000e+00	2.667605e+00	0.000000e+00	1.067042e+00	9.990219e-01	0.000000e+00	9.550909e-01	2.955814e-08	2.588633e-04	-1.809907e-03	4.886297e+03	2.403634e+00	0.000000e+00	
7.180327e-05	-1.497377e-03	1.069861e+00	0.000000e+00	0.000000e+00	2.672184e+00	0.000000e+00	1.068874e+00	9.990768e-01	0.000000e+00	9.811830e-01	2.955939e-08	1.406337e-04	-1.417255e-03	4.846566e+03	2.260623e+00	0.000000e+00	
2.721276e-05	-9.231024e-04	1.071030e+00	0.000000e+00	0.000000e+00	2.675374e+00	0.000000e+00	1.070150e+00	9.991783e-01	0.000000e+00	9.993598e-01	2.956170e-08	6.583957e-05	-1.067665e-03	4.733210e+03	2.098626e+00	0.000000e+00	
5.818606e-06	-4.273592e-04	1.071661e+00	0.000000e+00	0.000000e+00	2.677265e+00	0.000000e+00	1.070906e+00	9.992958e-01	0.000000e+00	1.010135e+00	2.956438e-08	2.258474e-05	-7.661123e-04	4.545044e+03	1.913090e+00	0.000000e+00	
0.000000e+00	0.000000e+00	1.072160e+00	0.000000e+00	0.000000e+00	2.678737e+00	0.000000e+00	1.071495e+00	9.993793e-01	0.000000e+00	1.018528e+00	2.956628e-08	-1.317760e-16	-5.031353e-04	4.292282e+03	1.670014e+00	0.000000e+00	
5.818606e-06	4.273592e-04	1.072595e+00	0.000000e+00	0.000000e+00	2.679713e+00	0.000000e+00	1.071885e+00	9.993386e-01	0.000000e+00	1.024086e+00	2.956535e-08	-8.871796e-06	-3.009462e-04	4.609891e+03	1.199523e+00	0.000000e+00	
2.721276e-05	9.231024e-04	1.072922e+00	0.000000e+00	0.000000e+00	2.680168e+00	0.000000e+00	1.072067e+00	9.992036e-01	0.000000e+00	1.026680e+00	2.956228e-08	-2.798332e-06	-4.537818e-05	4.856942e+03	4.330281e-01	0.000000e+00	
7.180327e-05	1.497377e-03	1.072989e+00	0.000000e+00	0.000000e+00	2.679956e+00	0.000000e+00	1.071982e+00	9.990622e-01	0.000000e+00	1.025473e+00	2.955906e-08	2.659388e-05	2.680034e-04	5.013104e+03	9.844938e-01	0.000000e+00	
1.500786e-04	2.161300e-03	1.072585e+00	0.000000e+00	0.000000e+00	2.678690e+00	0.000000e+00	1.071476e+00	9.989665e-01	0.000000e+00	1.018257e+00	2.955688e-08	9.129061e-05	6.382809e-04	5.087527e+03	1.430465e+00	0.000000e+00	
2.762360e-04	2.926719e-03	1.071549e+00	0.000000e+00	0.000000e+00	2.676002e+00	0.000000e+00	1.070401e+00	9.989284e-01	0.000000e+00	1.002940e+00	2.955602e-08	2.054144e-04	1.058763e-03	5.088079e+03	1.746134e+00	0.000000e+00	
4.691284e-04	3.805771e-03	1.069691e+00	0.000000e+00	0.000000e+00	2.671382e+00	0.000000e+00	1.068553e+00	9.989360e-01	0.000000e+00	9.766142e-01	2.955619e-08	3.839318e-04	1.516122e-03	5.023099e+03	1.994163e+00	0.000000e+00	
7.531893e-04	4.810177e-03	1.066820e+00	0.000000e+00	0.000000e+00	2.664310e+00	0.000000e+00	1.065724e+00	9.989729e-01	0.000000e+00	9.363124e-01	2.955703e-08	6.398145e-04	1.988365e-03	4.901606e+03	2.195419e+00	0.000000e+00	
1.159193e-03	5.950300e-03	1.062769e+00	0.000000e+00	0.000000e+00	2.654329e+00	0.000000e+00	1.061732e+00	9.990244e-01	0.000000e+00	8.794382e-01	2.955820e-08	9.803001e-04	2.446023e-03	4.735671e+03	2.358854e+00	0.000000e+00	
1.724623e-03	7.234077e-03	1.057450e+00	0.000000e+00	0.000000e+00	2.641198e+00	0.000000e+00	1.056479e+00	9.990817e-01	0.000000e+00	8.046080e-01	2.955951e-08	1.403327e-03	2.856336e-03	4.541640e+03	2.489203e+00	0.000000e+00	
2.493434e-03	8.666020e-03	1.050909e+00	0.000000e+00	0.000000e+00	2.625025e+00	0.000000e+00	1.050010e+00	9.991445e-01	0.000000e+00	7.124496e-01	2.956094e-08	1.896303e-03	3.190306e-03	4.339724e+03	2.590289e+00	0.000000e+00	
3.515320e-03	1.024671e-02	1.043352e+00	0.000000e+00	0.000000e+00	2.606353e+00	0.000000e+00	1.042541e+00	9.992228e-01	0.000000e+00	6.060455e-01	2.956272e-08	2.438362e-03	3.429514e-03	4.150636e+03	2.666497e+00	0.000000e+00	
4.844550e-03	1.197282e-02	1.035130e+00	0.000000e+00	0.000000e+00	2.586095e+00	0.000000e+00	1.034438e+00	9.993317e-01	0.000000e+00	4.906068e-01	2.956519e-08	3.003999e-03	3.567698e-03	3.989070e+03	2.722327e+00	0.000000e+00	
6.539262e-03	1.383810e-02	1.026673e+00	0.000000e+00	0.000000e+00	2.565343e+00	0.000000e+00	1.026137e+00	9.994784e-01	0.000000e+00	3.723525e-01	2.956853e-08	3.562675e-03	3.604751e-03	3.855839e+03	2.760160e+00	0.000000e+00	
8.660978e-03	1.583433e-02	1.018426e+00	0.000000e+00	0.000000e+00	2.545130e+00	0.000000e+00	1.018052e+00	9.996332e-01	0.000000e+00	2.571714e-01	2.957205e-08	4.080869e-03	3.545442e-03	3.746578e+03	2.780632e+00	0.000000e+00	
1.127516e-02	1.795263e-02	1.010752e+00	0.000000e+00	0.000000e+00	2.526272e+00	0.000000e+00	1.010509e+00	9.997591e-01	0.000000e+00	1.497124e-01	2.957492e-08	4.532208e-03	3.404074e-03	3.657249e+03	2.785221e+00	0.000000e+00	
1.445220e-02	2.018403e-02	1.003871e+00	0.000000e+00	0.000000e+00	2.509290e+00	0.000000e+00	1.003716e+00	9.998457e-01	0.000000e+00	5.293807e-02	2.957689e-08	4.900451e-03	3.200268e-03	3.580575e+03	2.775877e+00	0.000000e+00	
1.826886e-02	2.251990e-02	9.978679e-01	0.000000e+00	0.000000e+00	2.494419e+00	0.000000e+00	9.977677e-01	9.998996e-01	0.000000e+00	-3.180222e-02	2.957811e-08	5.182075e-03	2.956294e-03	3.511350e+03	2.755535e+00	0.000000e+00	
2.280944e-02	2.495170e-02	9.927313e-01	0.000000e+00	0.000000e+00	2.481660e+00	0.000000e+00	9.926641e-01	9.999323e-01	0.000000e+00	-1.045081e-01	2.957886e-08	5.383214e-03	2.692279e-03	3.446802e+03	2.727302e+00	0.000000e+00	
2.816724e-02	2.747033e-02	9.883996e-01	0.000000e+00	0.000000e+00	2.470883e+00	0.000000e+00	9.883532e-01	9.999530e-01	0.000000e+00	-1.659216e-01	2.957933e-08	5.514577e-03	2.423611e-03	3.385697e+03	2.693852e+00	0.000000e+00	
3.444509e-02	3.006547e-02	9.847907e-01	0.000000e+00	0.000000e+00	2.461894e+00	0.000000e+00	9.847576e-01	9.999664e-01	0.000000e+00	-2.171448e-01	2.957963e-08	5.587401e-03	2.160512e-03	3.327341e+03	2.657087e+00	0.000000e+00	
4.175588e-02	3.272472e-02	9.818174e-01	0.000000e+00	0.000000e+00	2.454478e+00	0.000000e+00	9.817912e-01	9.999733e-01	0.000000e+00	-2.594048e-01	2.957979e-08	5.611562e-03	1.908964e-03	3.271169e+03	2.618173e+00	0.000000e+00	
5.022241e-02	3.543267e-02	9.793987e-01	0.000000e+00	0.000000e+00	2.448435e+00	0.000000e+00	9.793740e-01	9.999748e-01	0.000000e+00	-2.938406e-01	2.957983e-08	5.596528e-03	1.672518e-03	3.216808e+03	2.578067e+00	0.000000e+00	
5.997667e-02	3.816999e-02	9.774625e-01	0.000000e+00	0.000000e+00	2.443588e+00	0.000000e+00	9.774353e-01	9.999721e-01	0.000000e+00	-3.214600e-01	2.957977e-08	5.550931e-03	1.452958e-03	3.164054e+03	2.537553e+00	0.000000e+00	
7.115831e-02	4.091264e-02	9.759473e-01	0.000000e+00	0.000000e+00	2.439787e+00	0.000000e+00	9.759147e-01	9.999666e-01	0.000000e+00	-3.431226e-01	2.957964e-08	5.481952e-03	1.250743e-03	3.112818e+03	2.497183e+00	0.000000e+00	
8.391231e-02	4.363107e-02	9.748031e-01	0.000000e+00	0.000000e+00	2.436908e+00	0.000000e+00	9.747632e-01	9.999591e-01	0.000000e+00	-3.595275e-01	2.957947e-08	5.395220e-03	1.065488e-03	3.063086e+03	2.457294e+00	0.000000e+00	
9.838552e-02	4.628967e-02	9.739917e-01	0.000000e+00	0.000000e+00	2.434858e+00	0.000000e+00	9.739432e-01	9.999502e-01	0.000000e+00	-3.712086e-01	2.957927e-08	5.295033e-03	8.963573e-04	3.014903e+03	2.418061e+00	0.000000e+00	
1.147221e-01	4.884662e-02	9.734847e-01	0.000000e+00	0.000000e+00	2.433567e+00	0.000000e+00	9.734266e-01	9.999403e-01	0.000000e+00	-3.785683e-01	2.957904e-08	5.184646e-03	7.423410e-04	2.968338e+03	2.379554e+00	0.000000e+00	
1.330575e-01	5.125403e-02	9.732584e-01	0.000000e+00	0.000000e+00	2.432975e+00	0.000000e+00	9.731902e-01	9.999299e-01	0.000000e+00	-3.819365e-01	2.957880e-08	5.066493e-03	6.024162e-04	2.923442e+03	2.341767e+00	0.000000e+00	
1.535115e-01	5.345876e-02	9.732946e-01	0.000000e+00	0.000000e+00	2.433040e+00	0.000000e+00	9.732158e-01	9.999191e-01	0.000000e+00	-3.815715e-01	2.957856e-08	4.942474e-03	4.756505e-04	2.880283e+03	2.304661e+00	0.000000e+00	
1.761797e-01	5.540400e-02	9.735794e-01	0.000000e+00	0.000000e+00	2.433725e+00	0.000000e+00	9.734900e-01	9.999081e-01	0.000000e+00	-3.776656e-01	2.957831e-08	4.814274e-03	3.612470e-04	2.838983e+03	2.268231e+00	0.000000e+00	
2.011248e-01	5.703151e-02	9.740963e-01	0.000000e+00	0.000000e+00	2.434991e+00	0.000000e+00	9.739963e-01	9.998974e-01	0.000000e+00	-3.704517e-01	2.957806e-08	4.683401e-03	2.585248e-04	2.799622e+03	2.232483e+00	0.000000e+00	
2.283666e-01	5.828472e-02	9.748285e-01	0.000000e+00	0.000000e+00	2.436797e+00	0.000000e+00	9.747188e-01	9.998875e-01	0.000000e+00	-3.601594e-01	2.957784e-08	4.551354e-03	1.668936e-04	2.762323e+03	2.197479e+00	0.000000e+00	
2.578733e-01	5.911242e-02	9.757563e-01	0.000000e+00	0.000000e+00	2.439095e+00	0.000000e+00	9.756379e-01	9.998786e-01	0.000000e+00	-3.470660e-01	2.957764e-08	4.419412e-03	8.580102e-05	2.727130e+03	2.163272e+00	0.000000e+00	
2.895540e-01	5.947265e-02	9.768573e-01	0.000000e+00	0.000000e+00	2.441828e+00	0.000000e+00	9.767311e-01	9.998708e-01	0.000000e+00	-3.314927e-01	2.957746e-08	4.288541e-03	1.470257e-05	2.693957e+03	2.129878e+00	0.000000e+00	
3.232528e-01	5.933656e-02	9.781039e-01	0.000000e+00	0.000000e+00	2.444927e+00	0.000000e+00	9.779706e-01	9.998638e-01	0.000000e+00	-3.138334e-01	2.957730e-08	4.159434e-03	-4.695887e-05	2.662560e+03	2.097278e+00	0.000000e+00	
3.587470e-01	5.869148e-02	9.794689e-01	0.000000e+00	0.000000e+00	2.448323e+00	0.000000e+00	9.793291e-01	9.998573e-01	0.000000e+00	-2.944802e-01	2.957715e-08	4.032767e-03	-9.977938e-05	2.632694e+03	2.065480e+00	0.000000e+00	
3.957488e-01	5.754285e-02	9.809197e-01	0.000000e+00	0.000000e+00	2.451934e+00	0.000000e+00	9.807737e-01	9.998512e-01	0.000000e+00	-2.739008e-01	2.957701e-08	3.909152e-03	-1.444188e-04	2.604077e+03	2.034504e+00	0.000000e+00	
4.339121e-01	5.591460e-02	9.824277e-01	0.000000e+00	0.000000e+00	2.455690e+00	0.000000e+00	9.822758e-01	9.998455e-01	0.000000e+00	-2.525010e-01	2.957688e-08	3.789245e-03	-1.816136e-04	2.576558e+03	2.004417e+00	0.000000e+00	
4.728433e-01	5.384781e-02	9.839636e-01	0.000000e+00	0.000000e+00	2.459516e+00	0.000000e+00	9.838064e-01	9.998402e-01	0.000000e+00	-2.306966e-01	2.957676e-08	3.673778e-03	-2.121766e-04	2.550156e+03	1.975340e+00	0.000000e+00	
5.121166e-01	5.139795e-02	9.855051e-01	0.000000e+00	0.000000e+00	2.463358e+00	0.000000e+00	9.853430e-01	9.998355e-01	0.000000e+00	-2.088053e-01	2.957666e-08	3.563286e-03	-2.369628e-04	2.524961e+03	1.947378e+00	0.000000e+00	
5.512916e-01	4.863091e-02	9.870324e-01	0.000000e+00	0.000000e+00	2.467164e+00	0.000000e+00	9.868656e-01	9.998311e-01	0.000000e+00	-1.871139e-01	2.957656e-08	3.458237e-03	-2.568401e-04	2.501230e+03	1.920651e+00	0.000000e+00	
5.899328e-01	4.561861e-02	9.885341e-01	0.000000e+00	0.000000e+00	2.470907e+00	0.000000e+00	9.883629e-01	9.998268e-01	0.000000e+00	-1.657837e-01	2.957646e-08	3.358657e-03	-2.726237e-04	2.479095e+03	1.895189e+00	0.000000e+00	
6.276283e-01	4.243463e-02	9.900016e-01	0.000000e+00	0.000000e+00	2.474565e+00	0.000000e+00	9.898258e-01	9.998225e-01	0.000000e+00	-1.449427e-01	2.957636e-08	3.264292e-03	-2.850452e-04	2.458666e+03	1.870957e+00	0.000000e+00	
6.640066e-01	3.915032e-02	9.914332e-01	0.000000e+00	0.000000e+00	2.478132e+00	0.000000e+00	9.912529e-01	9.998182e-01	0.000000e+00	-1.246117e-01	2.957626e-08	3.174554e-03	-2.947182e-04	2.439923e+03	1.847838e+00	0.000000e+00	
6.987499e-01	3.583186e-02	9.928293e-01	0.000000e+00	0.000000e+00	2.481611e+00	0.000000e+00	9.926444e-01	9.998138e-01	0.000000e+00	-1.047887e-01	2.957616e-08	3.088663e-03	-3.021313e-04	2.422817e+03	1.825659e+00	0.000000e+00	
7.316032e-01	3.253806e-02	9.941950e-01	0.000000e+00	0.000000e+00	2.485013e+00	0.000000e+00	9.940053e-01	9.998092e-01	0.000000e+00	-8.540129e-02	2.957606e-08	3.005669e-03	-3.076450e-04	2.407205e+03	1.804197e+00	0.000000e+00	
7.623778e-01	2.931924e-02	9.955358e-01	0.000000e+00	0.000000e+00	2.488353e+00	0.000000e+00	9.953410e-01	9.998044e-01	0.000000e+00	-6.637259e-02	2.957595e-08	2.924610e-03	-3.115121e-04	2.392940e+03	1.783212e+00	0.000000e+00	
7.909518e-01	2.621660e-02	9.968582e-01	0.000000e+00	0.000000e+00	2.491645e+00	0.000000e+00	9.966581e-01	9.997992e-01	0.000000e+00	-4.760926e-02	2.957583e-08	2.844575e-03	-3.138979e-04	2.379877e+03	1.762472e+00	0.000000e+00	
8.172658e-01	2.326236e-02	9.981683e-01	0.000000e+00	0.000000e+00	2.494906e+00	0.000000e+00	9.979623e-01	9.997937e-01	0.000000e+00	-2.902877e-02	2.957571e-08	2.764779e-03	-3.149061e-04	2.367909e+03	1.741771e+00	0.000000e+00	
8.413160e-01	2.048016e-02	9.994712e-01	0.000000e+00	0.000000e+00	2.498147e+00	0.000000e+00	9.992590e-01	9.997877e-01	0.000000e+00	-1.055659e-02	2.957557e-08	2.684569e-03	-3.145993e-04	2.356960e+03	1.720932e+00	0.000000e+00	
8.631457e-01	1.788578e-02	1.000770e+00	0.000000e+00	0.000000e+00	2.501377e+00	0.000000e+00	1.000551e+00	9.997811e-01	0.000000e+00	7.848085e-03	2.957542e-08	2.603448e-03	-3.130192e-04	2.347008e+03	1.699820e+00	0.000000e+00	
8.828360e-01	1.548810e-02	1.002067e+00	0.000000e+00	0.000000e+00	2.504601e+00	0.000000e+00	1.001840e+00	9.997740e-01	0.000000e+00	2.621925e-02	2.957526e-08	2.521043e-03	-3.101986e-04	2.338057e+03	1.678331e+00	0.000000e+00	
9.004963e-01	1.329003e-02	1.003362e+00	0.000000e+00	0.000000e+00	2.507818e+00	0.000000e+00	1.003127e+00	9.997660e-01	0.000000e+00	4.455142e-02	2.957508e-08	2.437148e-03	-3.061780e-04	2.330207e+03	1.656410e+00	0.000000e+00	
9.162555e-01	1.128962e-02	1.004654e+00	0.000000e+00	0.000000e+00	2.511026e+00	0.000000e+00	1.004410e+00	9.997572e-01	0.000000e+00	6.282957e-02	2.957487e-08	2.351679e-03	-3.010084e-04	2.323674e+03	1.634041e+00	0.000000e+00	
9.302548e-01	9.481022e-03	1.005942e+00	0.000000e+00	0.000000e+00	2.514218e+00	0.000000e+00	1.005687e+00	9.997470e-01	0.000000e+00	8.101928e-02	2.957464e-08	2.264732e-03	-2.947639e-04	2.318948e+03	1.611267e+00	0.000000e+00	
9.426407e-01	7.855481e-03	1.007223e+00	0.000000e+00	0.000000e+00	2.517390e+00	0.000000e+00	1.006956e+00	9.997352e-01	0.000000e+00	9.909870e-02	2.957438e-08	2.176698e-03	-2.875601e-04	2.317029e+03	1.588246e+00	0.000000e+00	
9.535602e-01	6.402178e-03	1.008495e+00	0.000000e+00	0.000000e+00	2.520535e+00	0.000000e+00	1.008214e+00	9.997208e-01	0.000000e+00	1.170157e-01	2.957405e-08	2.088575e-03	-2.795982e-04	2.319966e+03	1.565378e+00	0.000000e+00	
9.631568e-01	5.108981e-03	1.009765e+00	0.000000e+00	0.000000e+00	2.523659e+00	0.000000e+00	1.009464e+00	9.997013e-01	0.000000e+00	1.348220e-01	2.957360e-08	2.002559e-03	-2.712483e-04	2.331816e+03	1.543574e+00	0.000000e+00	
9.715675e-01	3.963073e-03	1.011032e+00	0.000000e+00	0.000000e+00	2.526736e+00	0.000000e+00	1.010694e+00	9.996664e-01	0.000000e+00	1.523546e-01	2.957281e-08	1.923763e-03	-2.632904e-04	2.362735e+03	1.525013e+00	0.000000e+00	
9.789211e-01	2.951446e-03	1.012340e+00	0.000000e+00	0.000000e+00	2.529818e+00	0.000000e+00	1.011927e+00	9.995917e-01	0.000000e+00	1.699147e-01	2.957111e-08	1.865824e-03	-2.577019e-04	2.439411e+03	1.515646e+00	0.000000e+00	
9.853369e-01	2.061293e-03	1.013673e+00	0.000000e+00	0.000000e+00	2.532739e+00	0.000000e+00	1.013096e+00	9.994301e-01	0.000000e+00	1.865621e-01	2.956743e-08	1.868714e-03	-2.601774e-04	2.636591e+03	1.532782e+00	0.000000e+00	
9.909241e-01	1.280290e-03	1.015444e+00	0.000000e+00	0.000000e+00	2.536507e+00	0.000000e+00	1.014603e+00	9.991718e-01	0.000000e+00	2.080336e-01	2.956156e-08	2.052138e-03	-2.877276e-04	3.143568e+03	1.625960e+00	0.000000e+00	
9.957821e-01	5.967887e-04	1.016020e+00	0.000000e+00	0.000000e+00	2.537878e+00	0.000000e+00	1.015151e+00	9.991451e-01	0.000000e+00	2.158480e-01	2.956095e-08	2.724745e-03	-3.843513e-04	4.390509e+03	1.898211e+00	0.000000e+00	
1	2
2	3
3	4
4	5
5	6
6	7
7	8
8	9
9	10
10	11
11	12
12	13
13	14
14	15
15	16
16	17
17	18
18	19
19	20
20	21
21	22
22	23
23	24
24	25
25	26
26	27
27	28
28	29
29	30
30	31
31	32
32	33
33	34
34	35
35	36
36	37
37	38
38	39
39	40
40	41
41	42
42	43
43	44
44	45
45	46
46	47
47	48
48	49
49	50
50	51
51	52
52	53
53	54
54	55
55	56
56	57
57	58
58	59
59	60
60	61
61	62
62	63
63	64
64	65
65	66
66	67
67	68
68	69
69	70
70	71
71	72
72	73
73	74
74	75
75	76
76	77
77	78
78	79
79	80
80	81
81	82
82	83
83	84
84	85
85	86
86	87
87	88
88	89
89	90
90	91
91	92
92	93
93	94
94	95
95	96
96	97
97	98
98	99
99	100
100	101
101	102
102	103
103	104
104	105
105	106
106	107
107	108
108	109
109	110
110	111
111	112
112	113
113	114
114	115
115	116
116	117
117	118
118	119
119	120
120	121
121	122
122	123
123	124
124	125
125	126
126	127
127	128
128	1
