TITLE = "Visualization of the solution"
VARIABLES = "x","y","Density","Momentum_x","Momentum_y","Energy","Nu_Tilde","Pressure","Temperature","Mach","Pressure_Coefficient","Laminar_Viscosity","Skin_Friction_Coefficient_x","Skin_Friction_Coefficient_y","Heat_Flux","Y_Plus","Eddy_Viscosity"
ZONE NODES= 14576, ELEMENTS= 14336, DATAPACKING=POINT, ZONETYPE=FEQUADRILATERAL
5.010000e+02	5.352203e-08	9.999981e-01	3.746649e-01	-3.924787e-03	2.570191e+00	8.878194e-08	9.999986e-01	1.000000e+00	3.166676e-01	-2.060276e-05	2.958041e-08	0.000000e+00	0.000000e+00	0.000000e+00	0.000000e+00	6.235777e-09	
4.052710e+02	5.352203e-08	9.999986e-01	3.746644e-01	-3.920328e-03	2.570191e+00	8.879785e-08	9.999988e-01	1.000000e+00	3.166670e-01	-1.767421e-05	2.958040e-08	0.000000e+00	0.000000e+00	0.000000e+00	0.000000e+00	6.239735e-09	
3.278693e+02	5.352203e-08	9.999991e-01	3.746644e-01	-3.916470e-03	2.570192e+00	8.881779e-08	9.999992e-01	1.000000e+00	3.166668e-01	-1.157420e-05	2.958040e-08	0.000000e+00	0.000000e+00	0.000000e+00	0.000000e+00	6.244808e-09	
2.652863e+02	5.352203e-08	9.999997e-01	3.746657e-01	-3.914586e-03	2.570194e+00	8.884145e-08	9.999996e-01	9.999998e-01	3.166677e-01	-5.854173e-06	2.958040e-08	0.000000e+00	0.000000e+00	0.000000e+00	0.000000e+00	6.251025e-09	
2.146849e+02	5.352203e-08	1.000000e+00	3.746695e-01	-3.913287e-03	2.570195e+00	8.886724e-08	9.999996e-01	9.999994e-01	3.166708e-01	-5.523307e-06	2.958038e-08	0.000000e+00	0.000000e+00	0.000000e+00	0.000000e+00	6.257951e-09	
1.737712e+02	5.352203e-08	1.000001e+00	3.746750e-01	-3.911121e-03	2.570197e+00	8.889684e-08	9.999996e-01	9.999987e-01	3.166753e-01	-5.660172e-06	2.958037e-08	0.000000e+00	0.000000e+00	0.000000e+00	0.000000e+00	6.265999e-09	
1.406904e+02	5.352203e-08	1.000002e+00	3.746798e-01	-3.908156e-03	2.570199e+00	8.894519e-08	9.999996e-01	9.999981e-01	3.166792e-01	-5.797127e-06	2.958036e-08	0.000000e+00	0.000000e+00	0.000000e+00	0.000000e+00	6.279082e-09	
1.139430e+02	5.352203e-08	1.000002e+00	3.746812e-01	-3.904636e-03	2.570199e+00	8.904430e-08	9.999996e-01	9.999977e-01	3.166804e-01	-5.794937e-06	2.958035e-08	0.000000e+00	0.000000e+00	0.000000e+00	0.000000e+00	6.305718e-09	
9.231638e+01	5.352203e-08	1.000002e+00	3.746767e-01	-3.900387e-03	2.570198e+00	8.923651e-08	9.999996e-01	9.999979e-01	3.166766e-01	-5.901695e-06	2.958035e-08	0.000000e+00	0.000000e+00	0.000000e+00	0.000000e+00	6.357435e-09	
7.483022e+01	5.352203e-08	1.000001e+00	3.746649e-01	-3.895120e-03	2.570193e+00	8.957411e-08	9.999996e-01	9.999989e-01	3.166667e-01	-5.799404e-06	2.958037e-08	0.000000e+00	0.000000e+00	0.000000e+00	0.000000e+00	6.448917e-09	
6.069179e+01	5.352203e-08	9.999991e-01	3.746467e-01	-3.888610e-03	2.570187e+00	9.015290e-08	9.999996e-01	1.000001e+00	3.166515e-01	-5.187602e-06	2.958041e-08	0.000000e+00	0.000000e+00	0.000000e+00	0.000000e+00	6.607733e-09	
4.926019e+01	5.352203e-08	9.999971e-01	3.746273e-01	-3.880663e-03	2.570180e+00	9.118891e-08	9.999998e-01	1.000003e+00	3.166354e-01	-3.509205e-06	2.958046e-08	0.000000e+00	0.000000e+00	0.000000e+00	0.000000e+00	6.898494e-09	
4.001717e+01	5.352203e-08	9.999954e-01	3.746180e-01	-3.871076e-03	2.570177e+00	9.316960e-08	1.000000e+00	1.000005e+00	3.166276e-01	6.309099e-08	2.958050e-08	0.000000e+00	0.000000e+00	0.000000e+00	0.000000e+00	7.478660e-09	
3.254374e+01	5.352203e-08	9.999954e-01	3.746340e-01	-3.859624e-03	2.570184e+00	9.712886e-08	1.000000e+00	1.000005e+00	3.166410e-01	6.839042e-06	2.958051e-08	0.000000e+00	0.000000e+00	0.000000e+00	0.000000e+00	8.737035e-09	
2.650110e+01	5.352203e-08	9.999982e-01	3.746895e-01	-3.846005e-03	2.570207e+00	1.054258e-07	1.000001e+00	1.000003e+00	3.166872e-01	1.871599e-05	2.958047e-08	0.000000e+00	0.000000e+00	0.000000e+00	0.000000e+00	1.182246e-08	
2.161534e+01	5.352203e-08	1.000004e+00	3.747869e-01	-3.829742e-03	2.570246e+00	1.260077e-07	1.000003e+00	9.999984e-01	3.167682e-01	3.838900e-05	2.958036e-08	0.000000e+00	0.000000e+00	0.000000e+00	0.000000e+00	2.230613e-08	
1.766495e+01	5.352203e-08	1.000013e+00	3.749073e-01	-3.810033e-03	2.570296e+00	1.892445e-07	1.000005e+00	9.999919e-01	3.168680e-01	6.966205e-05	2.958022e-08	0.000000e+00	0.000000e+00	0.000000e+00	0.000000e+00	7.936479e-08	
1.447088e+01	5.352203e-08	1.000022e+00	3.750103e-01	-3.785642e-03	2.570343e+00	3.941181e-07	1.000008e+00	9.999863e-01	3.169529e-01	1.181444e-04	2.958009e-08	0.000000e+00	0.000000e+00	0.000000e+00	0.000000e+00	3.398093e-07	
1.188831e+01	5.352203e-08	1.000028e+00	3.750404e-01	-3.754900e-03	2.570367e+00	9.588552e-07	1.000014e+00	9.999854e-01	3.169763e-01	1.926176e-04	2.958007e-08	0.000000e+00	0.000000e+00	0.000000e+00	0.000000e+00	9.419148e-07	
9.800175e+00	5.352203e-08	1.000027e+00	3.749206e-01	-3.715888e-03	2.570342e+00	2.178359e-06	1.000022e+00	9.999950e-01	3.168737e-01	3.067500e-04	2.958029e-08	0.000000e+00	0.000000e+00	0.000000e+00	0.000000e+00	2.157853e-06	
8.111817e+00	5.352203e-08	1.000010e+00	3.745318e-01	-3.666808e-03	2.570227e+00	4.448986e-06	1.000034e+00	1.000024e+00	3.165454e-01	4.794965e-04	2.958094e-08	0.000000e+00	0.000000e+00	0.000000e+00	0.000000e+00	4.411640e-06	
6.746697e+00	5.352203e-08	9.999702e-01	3.737164e-01	-3.606323e-03	2.569969e+00	7.712173e-06	1.000052e+00	1.000081e+00	3.158593e-01	7.338370e-04	2.958225e-08	0.000000e+00	0.000000e+00	0.000000e+00	0.000000e+00	7.661355e-06	
5.642931e+00	5.352203e-08	9.998996e-01	3.723054e-01	-3.533429e-03	2.569511e+00	1.153456e-05	1.000077e+00	1.000177e+00	3.146733e-01	1.097673e-03	2.958444e-08	0.000000e+00	0.000000e+00	0.000000e+00	0.000000e+00	1.147692e-05	
4.750481e+00	5.352203e-08	9.997935e-01	3.701528e-01	-3.447001e-03	2.568808e+00	1.533451e-05	1.000112e+00	1.000319e+00	3.128645e-01	1.601068e-03	2.958765e-08	0.000000e+00	0.000000e+00	0.000000e+00	0.000000e+00	1.527502e-05	
4.028892e+00	5.352203e-08	9.996362e-01	3.669005e-01	-3.345638e-03	2.567738e+00	1.953792e-05	1.000160e+00	1.000524e+00	3.101321e-01	2.279057e-03	2.959232e-08	0.000000e+00	0.000000e+00	0.000000e+00	0.000000e+00	1.947792e-05	
3.445452e+00	5.352203e-08	9.994291e-01	3.624063e-01	-3.228117e-03	2.566272e+00	2.357162e-05	1.000224e+00	1.000795e+00	3.063545e-01	3.189991e-03	2.959849e-08	0.000000e+00	0.000000e+00	0.000000e+00	0.000000e+00	2.351183e-05	
2.973712e+00	5.352203e-08	9.991816e-01	3.566307e-01	-3.094277e-03	2.564424e+00	2.710001e-05	1.000310e+00	1.001129e+00	3.014961e-01	4.411693e-03	2.960607e-08	0.000000e+00	0.000000e+00	0.000000e+00	0.000000e+00	2.703995e-05	
2.592287e+00	5.352203e-08	9.989125e-01	3.496658e-01	-2.945449e-03	2.562266e+00	2.989460e-05	1.000425e+00	1.001514e+00	2.956300e-01	6.053502e-03	2.961483e-08	0.000000e+00	0.000000e+00	0.000000e+00	0.000000e+00	2.983322e-05	
2.283886e+00	5.352203e-08	9.986486e-01	3.417581e-01	-2.784788e-03	2.559931e+00	3.178782e-05	1.000579e+00	1.001933e+00	2.889596e-01	8.253709e-03	2.962436e-08	0.000000e+00	0.000000e+00	0.000000e+00	0.000000e+00	3.172433e-05	
2.034529e+00	5.352203e-08	9.984164e-01	3.331877e-01	-2.617691e-03	2.557559e+00	3.279530e-05	1.000784e+00	1.002372e+00	2.817165e-01	1.117094e-02	2.963431e-08	0.000000e+00	0.000000e+00	0.000000e+00	0.000000e+00	3.272985e-05	
1.832911e+00	5.352203e-08	9.982425e-01	3.242790e-01	-2.450631e-03	2.555303e+00	3.287653e-05	1.001051e+00	1.002814e+00	2.741707e-01	1.497859e-02	2.964436e-08	0.000000e+00	0.000000e+00	0.000000e+00	0.000000e+00	3.281083e-05	
1.669894e+00	5.352203e-08	9.981490e-01	3.153348e-01	-2.285861e-03	2.553293e+00	3.217802e-05	1.001392e+00	1.003249e+00	2.665750e-01	1.983264e-02	2.965425e-08	0.000000e+00	0.000000e+00	0.000000e+00	0.000000e+00	3.211427e-05	
1.538086e+00	5.352203e-08	9.981478e-01	3.065088e-01	-2.117053e-03	2.551599e+00	3.097139e-05	1.001814e+00	1.003673e+00	2.590588e-01	2.584590e-02	2.966388e-08	0.000000e+00	0.000000e+00	0.000000e+00	0.000000e+00	3.091203e-05	
1.431513e+00	5.352203e-08	9.982339e-01	2.976162e-01	-1.936299e-03	2.550170e+00	2.954048e-05	1.002321e+00	1.004094e+00	2.514677e-01	3.306208e-02	2.967344e-08	0.000000e+00	0.000000e+00	0.000000e+00	0.000000e+00	2.948757e-05	
1.345344e+00	5.352203e-08	9.984072e-01	2.885382e-01	-1.747419e-03	2.548982e+00	2.802461e-05	1.002915e+00	1.004515e+00	2.437033e-01	4.152266e-02	2.968298e-08	0.000000e+00	0.000000e+00	0.000000e+00	0.000000e+00	2.797993e-05	
1.275671e+00	5.352203e-08	9.986688e-01	2.792330e-01	-1.575709e-03	2.548030e+00	2.650563e-05	1.003597e+00	1.004934e+00	2.357324e-01	5.123898e-02	2.969251e-08	0.000000e+00	0.000000e+00	0.000000e+00	0.000000e+00	2.647065e-05	
1.219338e+00	5.352203e-08	9.990189e-01	2.696857e-01	-1.452278e-03	2.547316e+00	2.502296e-05	1.004366e+00	1.005352e+00	2.275451e-01	6.219177e-02	2.970198e-08	0.000000e+00	0.000000e+00	0.000000e+00	0.000000e+00	2.499883e-05	
1.173790e+00	5.352203e-08	9.994560e-01	2.598731e-01	-1.380708e-03	2.546832e+00	2.358463e-05	1.005218e+00	1.005765e+00	2.191248e-01	7.433982e-02	2.971136e-08	0.000000e+00	0.000000e+00	0.000000e+00	0.000000e+00	2.357217e-05	
1.136961e+00	5.352203e-08	9.999765e-01	2.497530e-01	-1.326662e-03	2.546565e+00	2.217229e-05	1.006150e+00	1.006174e+00	2.104391e-01	8.761516e-02	2.972063e-08	0.000000e+00	0.000000e+00	0.000000e+00	0.000000e+00	2.217200e-05	
1.107184e+00	5.352203e-08	1.000574e+00	2.392642e-01	-1.249373e-03	2.546492e+00	2.075442e-05	1.007153e+00	1.006575e+00	2.014407e-01	1.019082e-01	2.972973e-08	0.000000e+00	0.000000e+00	0.000000e+00	0.000000e+00	2.076645e-05	
1.083108e+00	5.352203e-08	1.001242e+00	2.283304e-01	-1.143434e-03	2.546578e+00	1.929015e-05	1.008217e+00	1.006967e+00	1.920696e-01	1.170618e-01	2.973861e-08	0.000000e+00	0.000000e+00	0.000000e+00	0.000000e+00	1.931414e-05	
1.063641e+00	5.352203e-08	1.001968e+00	2.168606e-01	-1.043686e-03	2.546785e+00	1.773397e-05	1.009326e+00	1.007344e+00	1.822548e-01	1.328660e-01	2.974716e-08	0.000000e+00	0.000000e+00	0.000000e+00	0.000000e+00	1.776888e-05	
1.047901e+00	5.352203e-08	1.002743e+00	2.047421e-01	-9.879545e-04	2.547064e+00	1.604030e-05	1.010464e+00	1.007700e+00	1.719067e-01	1.490766e-01	2.975524e-08	0.000000e+00	0.000000e+00	0.000000e+00	0.000000e+00	1.608427e-05	
1.035174e+00	5.352203e-08	1.003556e+00	1.918099e-01	-9.796334e-04	2.547358e+00	1.416605e-05	1.011611e+00	1.008026e+00	1.608922e-01	1.654115e-01	2.976261e-08	0.000000e+00	0.000000e+00	0.000000e+00	0.000000e+00	1.421642e-05	
1.024884e+00	5.352203e-08	1.004409e+00	1.777697e-01	-9.863948e-04	2.547613e+00	1.206654e-05	1.012752e+00	1.008307e+00	1.489681e-01	1.816727e-01	2.976897e-08	0.000000e+00	0.000000e+00	0.000000e+00	0.000000e+00	1.211968e-05	
1.016564e+00	5.352203e-08	1.005365e+00	1.620222e-01	-9.644007e-04	2.547873e+00	9.700848e-06	1.013927e+00	1.008516e+00	1.356291e-01	1.984031e-01	2.977371e-08	0.000000e+00	0.000000e+00	0.000000e+00	0.000000e+00	9.752768e-06	
1.009837e+00	5.352203e-08	1.006094e+00	1.431329e-01	-8.850982e-04	2.546976e+00	6.987209e-06	1.014718e+00	1.008572e+00	1.197269e-01	2.096725e-01	2.977497e-08	0.000000e+00	0.000000e+00	0.000000e+00	0.000000e+00	7.029690e-06	
1.004398e+00	5.352203e-08	1.009367e+00	1.136037e-01	-7.100204e-04	2.550239e+00	3.900985e-06	1.017538e+00	1.008095e+00	9.474079e-02	2.498515e-01	2.976418e-08	0.000000e+00	0.000000e+00	0.000000e+00	0.000000e+00	3.936992e-06	
1.000000e+00	5.352203e-08	1.016373e+00	0.000000e+00	0.000000e+00	2.542524e+00	0.000000e+00	1.017010e+00	1.000626e+00	0.000000e+00	2.423206e-01	2.959464e-08	9.399769e-15	3.776348e-05	3.471092e+02	2.439179e+02	0.000000e+00	
9.957821e-01	-5.967887e-04	1.015955e+00	0.000000e+00	0.000000e+00	2.537704e+00	0.000000e+00	1.015082e+00	9.991401e-01	0.000000e+00	2.148551e-01	2.956083e-08	2.642121e-03	3.727276e-04	4.380670e+03	1.869159e+00	0.000000e+00	
9.909241e-01	-1.280290e-03	1.015350e+00	0.000000e+00	0.000000e+00	2.536257e+00	0.000000e+00	1.014503e+00	9.991661e-01	0.000000e+00	2.066094e-01	2.956143e-08	1.960066e-03	2.748183e-04	3.135298e+03	1.588999e+00	0.000000e+00	
9.853369e-01	-2.061293e-03	1.013603e+00	0.000000e+00	0.000000e+00	2.532548e+00	0.000000e+00	1.013019e+00	9.994236e-01	0.000000e+00	1.854713e-01	2.956729e-08	1.771703e-03	2.466709e-04	2.628140e+03	1.492422e+00	0.000000e+00	
9.789211e-01	-2.951446e-03	1.012262e+00	0.000000e+00	0.000000e+00	2.529601e+00	0.000000e+00	1.011841e+00	9.995841e-01	0.000000e+00	1.686820e-01	2.957094e-08	1.766227e-03	2.439457e-04	2.430368e+03	1.474590e+00	0.000000e+00	
9.715675e-01	-3.963073e-03	1.010937e+00	0.000000e+00	0.000000e+00	2.526478e+00	0.000000e+00	1.010591e+00	9.996586e-01	0.000000e+00	1.508862e-01	2.957263e-08	1.823918e-03	2.496253e-04	2.354005e+03	1.484850e+00	0.000000e+00	
9.631568e-01	-5.108981e-03	1.009638e+00	0.000000e+00	0.000000e+00	2.523321e+00	0.000000e+00	1.009328e+00	9.996937e-01	0.000000e+00	1.328931e-01	2.957343e-08	1.904299e-03	2.579390e-04	2.324296e+03	1.505142e+00	0.000000e+00	
9.535602e-01	-6.402178e-03	1.008324e+00	0.000000e+00	0.000000e+00	2.520088e+00	0.000000e+00	1.008035e+00	9.997136e-01	0.000000e+00	1.144689e-01	2.957388e-08	1.993210e-03	2.668316e-04	2.314130e+03	1.529101e+00	0.000000e+00	
9.426407e-01	-7.855481e-03	1.006996e+00	0.000000e+00	0.000000e+00	2.516805e+00	0.000000e+00	1.006722e+00	9.997282e-01	0.000000e+00	9.576331e-02	2.957422e-08	2.085171e-03	2.754685e-04	2.313091e+03	1.554329e+00	0.000000e+00	
9.302548e-01	-9.481022e-03	1.005648e+00	0.000000e+00	0.000000e+00	2.513467e+00	0.000000e+00	1.005387e+00	9.997403e-01	0.000000e+00	7.674353e-02	2.957449e-08	2.177737e-03	2.834411e-04	2.316982e+03	1.579795e+00	0.000000e+00	
9.162555e-01	-1.128962e-02	1.004284e+00	0.000000e+00	0.000000e+00	2.510084e+00	0.000000e+00	1.004034e+00	9.997507e-01	0.000000e+00	5.746258e-02	2.957473e-08	2.269727e-03	2.905187e-04	2.323696e+03	1.605028e+00	0.000000e+00	
9.004963e-01	-1.329003e-02	1.002905e+00	0.000000e+00	0.000000e+00	2.506660e+00	0.000000e+00	1.002664e+00	9.997598e-01	0.000000e+00	3.795021e-02	2.957494e-08	2.360590e-03	2.965601e-04	2.332177e+03	1.629823e+00	0.000000e+00	
8.828360e-01	-1.548810e-02	1.001513e+00	0.000000e+00	0.000000e+00	2.503202e+00	0.000000e+00	1.001281e+00	9.997680e-01	0.000000e+00	1.824370e-02	2.957512e-08	2.450109e-03	3.014707e-04	2.341888e+03	1.654101e+00	0.000000e+00	
8.631457e-01	-1.788578e-02	1.000110e+00	0.000000e+00	0.000000e+00	2.499712e+00	0.000000e+00	9.998850e-01	9.997754e-01	0.000000e+00	-1.638553e-03	2.957529e-08	2.538270e-03	3.051827e-04	2.352580e+03	1.677861e+00	0.000000e+00	
8.413160e-01	-2.048016e-02	9.986949e-01	0.000000e+00	0.000000e+00	2.496194e+00	0.000000e+00	9.984774e-01	9.997823e-01	0.000000e+00	-2.169059e-02	2.957545e-08	2.625217e-03	3.076440e-04	2.364139e+03	1.701148e+00	0.000000e+00	
8.172658e-01	-2.326236e-02	9.972662e-01	0.000000e+00	0.000000e+00	2.492638e+00	0.000000e+00	9.970553e-01	9.997885e-01	0.000000e+00	-4.195045e-02	2.957559e-08	2.711284e-03	3.088131e-04	2.376561e+03	1.724065e+00	0.000000e+00	
7.909518e-01	-2.621660e-02	9.958200e-01	0.000000e+00	0.000000e+00	2.489038e+00	0.000000e+00	9.956152e-01	9.997944e-01	0.000000e+00	-6.246578e-02	2.957572e-08	2.796967e-03	3.086444e-04	2.389878e+03	1.746757e+00	0.000000e+00	
7.623778e-01	-2.931924e-02	9.943502e-01	0.000000e+00	0.000000e+00	2.485378e+00	0.000000e+00	9.941512e-01	9.997998e-01	0.000000e+00	-8.332325e-02	2.957584e-08	2.882945e-03	3.070742e-04	2.404186e+03	1.769416e+00	0.000000e+00	
7.316032e-01	-3.253806e-02	9.928499e-01	0.000000e+00	0.000000e+00	2.481640e+00	0.000000e+00	9.926562e-01	9.998049e-01	0.000000e+00	-1.046214e-01	2.957596e-08	2.970051e-03	3.039993e-04	2.419611e+03	1.792267e+00	0.000000e+00	
6.987499e-01	-3.583186e-02	9.913108e-01	0.000000e+00	0.000000e+00	2.477806e+00	0.000000e+00	9.911223e-01	9.998098e-01	0.000000e+00	-1.264736e-01	2.957607e-08	3.059254e-03	2.992545e-04	2.436311e+03	1.815563e+00	0.000000e+00	
6.640066e-01	-3.915032e-02	9.897261e-01	0.000000e+00	0.000000e+00	2.473856e+00	0.000000e+00	9.895425e-01	9.998145e-01	0.000000e+00	-1.489794e-01	2.957618e-08	3.151579e-03	2.925853e-04	2.454432e+03	1.839559e+00	0.000000e+00	
6.276283e-01	-4.243463e-02	9.880885e-01	0.000000e+00	0.000000e+00	2.469774e+00	0.000000e+00	9.879098e-01	9.998191e-01	0.000000e+00	-1.722393e-01	2.957628e-08	3.248048e-03	2.836268e-04	2.474114e+03	1.864497e+00	0.000000e+00	
5.899328e-01	-4.561861e-02	9.863958e-01	0.000000e+00	0.000000e+00	2.465555e+00	0.000000e+00	9.862220e-01	9.998238e-01	0.000000e+00	-1.962833e-01	2.957639e-08	3.349526e-03	2.718825e-04	2.495398e+03	1.890568e+00	0.000000e+00	
5.512916e-01	-4.863091e-02	9.846474e-01	0.000000e+00	0.000000e+00	2.461196e+00	0.000000e+00	9.844784e-01	9.998284e-01	0.000000e+00	-2.211224e-01	2.957650e-08	3.456707e-03	2.567264e-04	2.518301e+03	1.917909e+00	0.000000e+00	
5.121166e-01	-5.139795e-02	9.828499e-01	0.000000e+00	0.000000e+00	2.456715e+00	0.000000e+00	9.826860e-01	9.998332e-01	0.000000e+00	-2.466582e-01	2.957660e-08	3.569964e-03	2.374069e-04	2.542713e+03	1.946578e+00	0.000000e+00	
4.728433e-01	-5.384781e-02	9.810123e-01	0.000000e+00	0.000000e+00	2.452134e+00	0.000000e+00	9.808535e-01	9.998381e-01	0.000000e+00	-2.727642e-01	2.957672e-08	3.689439e-03	2.130811e-04	2.568532e+03	1.976578e+00	0.000000e+00	
4.339121e-01	-5.591460e-02	9.791522e-01	0.000000e+00	0.000000e+00	2.447497e+00	0.000000e+00	9.789988e-01	9.998434e-01	0.000000e+00	-2.991858e-01	2.957684e-08	3.814884e-03	1.828425e-04	2.595539e+03	2.007835e+00	0.000000e+00	
3.957488e-01	-5.754285e-02	9.772891e-01	0.000000e+00	0.000000e+00	2.442855e+00	0.000000e+00	9.771419e-01	9.998493e-01	0.000000e+00	-3.256400e-01	2.957697e-08	3.945626e-03	1.457663e-04	2.623433e+03	2.040190e+00	0.000000e+00	
3.587470e-01	-5.869148e-02	9.754503e-01	0.000000e+00	0.000000e+00	2.438274e+00	0.000000e+00	9.753098e-01	9.998559e-01	0.000000e+00	-3.517406e-01	2.957712e-08	4.081165e-03	1.009768e-04	2.652224e+03	2.073572e+00	0.000000e+00	
3.232528e-01	-5.933656e-02	9.736620e-01	0.000000e+00	0.000000e+00	2.433822e+00	0.000000e+00	9.735288e-01	9.998632e-01	0.000000e+00	-3.771119e-01	2.957729e-08	4.220752e-03	4.765113e-05	2.681873e+03	2.107878e+00	0.000000e+00	
2.895540e-01	-5.947265e-02	9.719553e-01	0.000000e+00	0.000000e+00	2.429576e+00	0.000000e+00	9.718303e-01	9.998714e-01	0.000000e+00	-4.013093e-01	2.957747e-08	4.364170e-03	-1.496186e-05	2.712751e+03	2.143178e+00	0.000000e+00	
2.578733e-01	-5.911242e-02	9.703555e-01	0.000000e+00	0.000000e+00	2.425600e+00	0.000000e+00	9.702398e-01	9.998808e-01	0.000000e+00	-4.239677e-01	2.957769e-08	4.511056e-03	-8.758024e-05	2.745104e+03	2.179526e+00	0.000000e+00	
2.283666e-01	-5.828472e-02	9.688884e-01	0.000000e+00	0.000000e+00	2.421959e+00	0.000000e+00	9.687836e-01	9.998918e-01	0.000000e+00	-4.447136e-01	2.957794e-08	4.660918e-03	-1.709112e-04	2.779096e+03	2.216979e+00	0.000000e+00	
2.011248e-01	-5.703151e-02	9.675749e-01	0.000000e+00	0.000000e+00	2.418705e+00	0.000000e+00	9.674822e-01	9.999042e-01	0.000000e+00	-4.632534e-01	2.957822e-08	4.812857e-03	-2.656708e-04	2.814659e+03	2.255527e+00	0.000000e+00	
1.761797e-01	-5.540400e-02	9.664329e-01	0.000000e+00	0.000000e+00	2.415883e+00	0.000000e+00	9.663531e-01	9.999175e-01	0.000000e+00	-4.793386e-01	2.957852e-08	4.965623e-03	-3.726036e-04	2.851578e+03	2.295122e+00	0.000000e+00	
1.535115e-01	-5.345876e-02	9.654767e-01	0.000000e+00	0.000000e+00	2.413526e+00	0.000000e+00	9.654103e-01	9.999312e-01	0.000000e+00	-4.927701e-01	2.957883e-08	5.117914e-03	-4.925344e-04	2.889579e+03	2.335749e+00	0.000000e+00	
1.330575e-01	-5.125403e-02	9.647201e-01	0.000000e+00	0.000000e+00	2.411668e+00	0.000000e+00	9.646673e-01	9.999453e-01	0.000000e+00	-5.033551e-01	2.957915e-08	5.268512e-03	-6.264367e-04	2.928416e+03	2.377472e+00	0.000000e+00	
1.147221e-01	-4.884662e-02	9.641740e-01	0.000000e+00	0.000000e+00	2.410337e+00	0.000000e+00	9.641350e-01	9.999595e-01	0.000000e+00	-5.109385e-01	2.957948e-08	5.416085e-03	-7.754785e-04	2.967774e+03	2.420391e+00	0.000000e+00	
9.838552e-02	-4.628967e-02	9.638544e-01	0.000000e+00	0.000000e+00	2.409573e+00	0.000000e+00	9.638292e-01	9.999738e-01	0.000000e+00	-5.152941e-01	2.957980e-08	5.559127e-03	-9.410638e-04	3.007352e+03	2.464656e+00	0.000000e+00	
8.391231e-02	-4.363107e-02	9.637823e-01	0.000000e+00	0.000000e+00	2.409427e+00	0.000000e+00	9.637710e-01	9.999882e-01	0.000000e+00	-5.161240e-01	2.958013e-08	5.695609e-03	-1.124811e-03	3.046819e+03	2.510405e+00	0.000000e+00	
7.115831e-02	-4.091264e-02	9.639848e-01	0.000000e+00	0.000000e+00	2.409968e+00	0.000000e+00	9.639871e-01	1.000002e+00	0.000000e+00	-5.130444e-01	2.958045e-08	5.822664e-03	-1.328479e-03	3.085788e+03	2.557723e+00	0.000000e+00	
5.997667e-02	-3.816999e-02	9.645004e-01	0.000000e+00	0.000000e+00	2.411290e+00	0.000000e+00	9.645160e-01	1.000016e+00	0.000000e+00	-5.055106e-01	2.958077e-08	5.936330e-03	-1.553836e-03	3.123904e+03	2.606620e+00	0.000000e+00	
5.022241e-02	-3.543267e-02	9.653822e-01	0.000000e+00	0.000000e+00	2.413525e+00	0.000000e+00	9.654099e-01	1.000029e+00	0.000000e+00	-4.927760e-01	2.958105e-08	6.031202e-03	-1.802420e-03	3.160934e+03	2.656983e+00	0.000000e+00	
4.175588e-02	-3.272472e-02	9.666981e-01	0.000000e+00	0.000000e+00	2.416840e+00	0.000000e+00	9.667360e-01	1.000039e+00	0.000000e+00	-4.738832e-01	2.958129e-08	6.100230e-03	-2.075201e-03	3.196894e+03	2.708555e+00	0.000000e+00	
3.444509e-02	-3.006547e-02	9.685324e-01	0.000000e+00	0.000000e+00	2.421446e+00	0.000000e+00	9.685782e-01	1.000047e+00	0.000000e+00	-4.476390e-01	2.958148e-08	6.135073e-03	-2.372283e-03	3.232255e+03	2.761015e+00	0.000000e+00	
2.816724e-02	-2.747033e-02	9.709853e-01	0.000000e+00	0.000000e+00	2.427595e+00	0.000000e+00	9.710381e-01	1.000054e+00	0.000000e+00	-4.125953e-01	2.958163e-08	6.127138e-03	-2.692826e-03	3.268048e+03	2.814186e+00	0.000000e+00	
2.280944e-02	-2.495170e-02	9.741760e-01	0.000000e+00	0.000000e+00	2.435591e+00	0.000000e+00	9.742364e-01	1.000062e+00	0.000000e+00	-3.670318e-01	2.958181e-08	6.066896e-03	-3.034205e-03	3.305877e+03	2.867842e+00	0.000000e+00	
1.826886e-02	-2.251990e-02	9.782361e-01	0.000000e+00	0.000000e+00	2.445754e+00	0.000000e+00	9.783014e-01	1.000067e+00	0.000000e+00	-3.091213e-01	2.958192e-08	5.940643e-03	-3.389046e-03	3.347960e+03	2.920790e+00	0.000000e+00	
1.445220e-02	-2.018403e-02	9.832966e-01	0.000000e+00	0.000000e+00	2.458384e+00	0.000000e+00	9.833536e-01	1.000058e+00	0.000000e+00	-2.371464e-01	2.958172e-08	5.731042e-03	-3.742690e-03	3.397355e+03	2.970512e+00	0.000000e+00	
1.127516e-02	-1.795263e-02	9.894551e-01	0.000000e+00	0.000000e+00	2.473693e+00	0.000000e+00	9.894770e-01	1.000022e+00	0.000000e+00	-1.499121e-01	2.958090e-08	5.422221e-03	-4.072549e-03	3.458057e+03	3.013570e+00	0.000000e+00	
8.660978e-03	-1.583433e-02	9.967236e-01	0.000000e+00	0.000000e+00	2.491675e+00	0.000000e+00	9.966699e-01	9.999461e-01	0.000000e+00	-4.744053e-02	2.957917e-08	5.006590e-03	-4.349705e-03	3.534535e+03	3.046186e+00	0.000000e+00	
6.539262e-03	-1.383810e-02	1.004992e+00	0.000000e+00	0.000000e+00	2.512035e+00	0.000000e+00	1.004814e+00	9.998232e-01	0.000000e+00	6.858333e-02	2.957638e-08	4.490324e-03	-4.543357e-03	3.631170e+03	3.065033e+00	0.000000e+00	
4.844550e-03	-1.197282e-02	1.013986e+00	0.000000e+00	0.000000e+00	2.534109e+00	0.000000e+00	1.013643e+00	9.996625e-01	0.000000e+00	1.943670e-01	2.957272e-08	3.896457e-03	-4.627626e-03	3.750528e+03	3.067844e+00	0.000000e+00	
3.515320e-03	-1.024671e-02	1.023271e+00	0.000000e+00	0.000000e+00	2.556897e+00	0.000000e+00	1.022759e+00	9.994995e-01	0.000000e+00	3.242267e-01	2.956901e-08	3.261739e-03	-4.587580e-03	3.888958e+03	3.053543e+00	0.000000e+00	
2.493434e-03	-8.666020e-03	1.032347e+00	0.000000e+00	0.000000e+00	2.579235e+00	0.000000e+00	1.031694e+00	9.993677e-01	0.000000e+00	4.515153e-01	2.956601e-08	2.632484e-03	-4.428846e-03	4.044806e+03	3.024356e+00	0.000000e+00	
1.724623e-03	-7.234077e-03	1.040760e+00	0.000000e+00	0.000000e+00	2.599991e+00	0.000000e+00	1.039996e+00	9.992659e-01	0.000000e+00	5.697930e-01	2.956370e-08	2.047612e-03	-4.167717e-03	4.218024e+03	2.982556e+00	0.000000e+00	
1.159193e-03	-5.950300e-03	1.048171e+00	0.000000e+00	0.000000e+00	2.618294e+00	0.000000e+00	1.047318e+00	9.991859e-01	0.000000e+00	6.740931e-01	2.956188e-08	1.532044e-03	-3.822722e-03	4.397405e+03	2.928195e+00	0.000000e+00	
7.531893e-04	-4.810177e-03	1.054402e+00	0.000000e+00	0.000000e+00	2.633687e+00	0.000000e+00	1.053475e+00	9.991207e-01	0.000000e+00	7.618090e-01	2.956039e-08	1.099526e-03	-3.417020e-03	4.565325e+03	2.860890e+00	0.000000e+00	
4.691284e-04	-3.805771e-03	1.059427e+00	0.000000e+00	0.000000e+00	2.646106e+00	0.000000e+00	1.058443e+00	9.990705e-01	0.000000e+00	8.325804e-01	2.955925e-08	7.540820e-04	-2.977822e-03	4.703540e+03	2.781022e+00	0.000000e+00	
2.762360e-04	-2.926719e-03	1.063330e+00	0.000000e+00	0.000000e+00	2.655780e+00	0.000000e+00	1.062312e+00	9.990424e-01	0.000000e+00	8.877057e-01	2.955861e-08	4.912678e-04	-2.532130e-03	4.796600e+03	2.689745e+00	0.000000e+00	
1.500786e-04	-2.161300e-03	1.066257e+00	0.000000e+00	0.000000e+00	2.663104e+00	0.000000e+00	1.065242e+00	9.990480e-01	0.000000e+00	9.294399e-01	2.955874e-08	3.006836e-04	-2.102304e-03	4.832734e+03	2.588254e+00	0.000000e+00	
7.180327e-05	-1.497377e-03	1.068362e+00	0.000000e+00	0.000000e+00	2.668496e+00	0.000000e+00	1.067398e+00	9.990982e-01	0.000000e+00	9.601645e-01	2.955988e-08	1.691114e-04	-1.704243e-03	4.803746e+03	2.477183e+00	0.000000e+00	
2.721276e-05	-9.231024e-04	1.069826e+00	0.000000e+00	0.000000e+00	2.672419e+00	0.000000e+00	1.068968e+00	9.991976e-01	0.000000e+00	9.825212e-01	2.956214e-08	8.303813e-05	-1.346559e-03	4.702638e+03	2.355482e+00	0.000000e+00	
5.818606e-06	-4.273592e-04	1.070685e+00	0.000000e+00	0.000000e+00	2.674884e+00	0.000000e+00	1.069954e+00	9.993173e-01	0.000000e+00	9.965708e-01	2.956487e-08	3.052347e-05	-1.035407e-03	4.528972e+03	2.223002e+00	0.000000e+00	
0.000000e+00	0.000000e+00	1.071418e+00	0.000000e+00	0.000000e+00	2.676969e+00	0.000000e+00	1.070788e+00	9.994115e-01	0.000000e+00	1.008452e+00	2.956701e-08	-1.989589e-16	-7.596473e-04	4.289854e+03	2.051268e+00	0.000000e+00	
5.818606e-06	4.273592e-04	1.072097e+00	0.000000e+00	0.000000e+00	2.678563e+00	0.000000e+00	1.071425e+00	9.993733e-01	0.000000e+00	1.017534e+00	2.956614e-08	-1.696556e-05	-5.755003e-04	4.619137e+03	1.658344e+00	0.000000e+00	
2.721276e-05	9.231024e-04	1.072683e+00	0.000000e+00	0.000000e+00	2.679626e+00	0.000000e+00	1.071851e+00	9.992236e-01	0.000000e+00	1.023593e+00	2.956274e-08	-2.054045e-05	-3.330872e-04	4.875107e+03	1.173050e+00	0.000000e+00	
7.180327e-05	1.497377e-03	1.073072e+00	0.000000e+00	0.000000e+00	2.680174e+00	0.000000e+00	1.072070e+00	9.990655e-01	0.000000e+00	1.026714e+00	2.955914e-08	-2.880737e-06	-2.903102e-05	5.036797e+03	3.240334e-01	0.000000e+00	
1.500786e-04	2.161300e-03	1.073019e+00	0.000000e+00	0.000000e+00	2.679751e+00	0.000000e+00	1.071900e+00	9.989574e-01	0.000000e+00	1.024303e+00	2.955668e-08	4.807682e-05	3.361410e-04	5.116607e+03	1.038300e+00	0.000000e+00	
2.762360e-04	2.926719e-03	1.072372e+00	0.000000e+00	0.000000e+00	2.678016e+00	0.000000e+00	1.071207e+00	9.989129e-01	0.000000e+00	1.014418e+00	2.955566e-08	1.466267e-04	7.557545e-04	5.122987e+03	1.475844e+00	0.000000e+00	
4.691284e-04	3.805771e-03	1.070936e+00	0.000000e+00	0.000000e+00	2.674443e+00	0.000000e+00	1.069777e+00	9.989177e-01	0.000000e+00	9.940576e-01	2.955577e-08	3.081593e-04	1.216902e-03	5.064095e+03	1.787640e+00	0.000000e+00	
7.531893e-04	4.810177e-03	1.068515e+00	0.000000e+00	0.000000e+00	2.668492e+00	0.000000e+00	1.067397e+00	9.989533e-01	0.000000e+00	9.601456e-01	2.955658e-08	5.463043e-04	1.697762e-03	4.947866e+03	2.030295e+00	0.000000e+00	
1.159193e-03	5.950300e-03	1.064927e+00	0.000000e+00	0.000000e+00	2.659665e+00	0.000000e+00	1.063866e+00	9.990039e-01	0.000000e+00	9.098438e-01	2.955774e-08	8.691216e-04	2.168612e-03	4.785134e+03	2.223357e+00	0.000000e+00	
1.724623e-03	7.234077e-03	1.060061e+00	0.000000e+00	0.000000e+00	2.647661e+00	0.000000e+00	1.059064e+00	9.990597e-01	0.000000e+00	8.414378e-01	2.955901e-08	1.275289e-03	2.595729e-03	4.591137e+03	2.375900e+00	0.000000e+00	
2.493434e-03	8.666020e-03	1.053936e+00	0.000000e+00	0.000000e+00	2.632518e+00	0.000000e+00	1.053007e+00	9.991186e-01	0.000000e+00	7.551476e-01	2.956034e-08	1.752562e-03	2.948480e-03	4.385579e+03	2.493816e+00	0.000000e+00	
3.515320e-03	1.024671e-02	1.046733e+00	0.000000e+00	0.000000e+00	2.614709e+00	0.000000e+00	1.045884e+00	9.991887e-01	0.000000e+00	6.536663e-01	2.956194e-08	2.280019e-03	3.206807e-03	4.189855e+03	2.582707e+00	0.000000e+00	
4.844550e-03	1.197282e-02	1.038780e+00	0.000000e+00	0.000000e+00	2.595097e+00	0.000000e+00	1.038039e+00	9.992860e-01	0.000000e+00	5.419062e-01	2.956415e-08	2.832728e-03	3.364289e-03	4.021194e+03	2.648333e+00	0.000000e+00	
6.539262e-03	1.383810e-02	1.030498e+00	0.000000e+00	0.000000e+00	2.574754e+00	0.000000e+00	1.029901e+00	9.994214e-01	0.000000e+00	4.259805e-01	2.956724e-08	3.383012e-03	3.422967e-03	3.884306e+03	2.694788e+00	0.000000e+00	
8.660978e-03	1.583433e-02	1.022320e+00	0.000000e+00	0.000000e+00	2.554718e+00	0.000000e+00	1.021887e+00	9.995769e-01	0.000000e+00	3.118087e-01	2.957077e-08	3.898810e-03	3.387270e-03	3.772418e+03	2.723208e+00	0.000000e+00	
1.127516e-02	1.795263e-02	1.014625e+00	0.000000e+00	0.000000e+00	2.535829e+00	0.000000e+00	1.014331e+00	9.997105e-01	0.000000e+00	2.041674e-01	2.957381e-08	4.354436e-03	3.270552e-03	3.681975e+03	2.735378e+00	0.000000e+00	
1.445220e-02	2.018403e-02	1.007653e+00	0.000000e+00	0.000000e+00	2.518644e+00	0.000000e+00	1.007458e+00	9.998063e-01	0.000000e+00	1.062430e-01	2.957599e-08	4.732239e-03	3.090416e-03	3.604559e+03	2.733035e+00	0.000000e+00	
1.826886e-02	2.251990e-02	1.001510e+00	0.000000e+00	0.000000e+00	2.503446e+00	0.000000e+00	1.001378e+00	9.998686e-01	0.000000e+00	1.963465e-02	2.957741e-08	5.026468e-03	2.867523e-03	3.534014e+03	2.718861e+00	0.000000e+00	
2.280944e-02	2.495170e-02	9.962016e-01	0.000000e+00	0.000000e+00	2.490275e+00	0.000000e+00	9.961098e-01	9.999079e-01	0.000000e+00	-5.542011e-02	2.957830e-08	5.241293e-03	2.621301e-03	3.467294e+03	2.695862e+00	0.000000e+00	
2.816724e-02	2.747033e-02	9.916798e-01	0.000000e+00	0.000000e+00	2.479035e+00	0.000000e+00	9.916139e-01	9.999335e-01	0.000000e+00	-1.194696e-01	2.957889e-08	5.386179e-03	2.367181e-03	3.403343e+03	2.666761e+00	0.000000e+00	