TITLE = "Visualization of the solution"
VARIABLES = "x","y","Density","Momentum_x","Momentum_y","Energy","Nu_Tilde","Pressure","Temperature","Mach","Pressure_Coefficient","Laminar_Viscosity","Skin_Friction_Coefficient_x","Skin_Friction_Coefficient_y","Heat_Flux","Y_Plus","Eddy_Viscosity"
ZONE NODES= 128, ELEMENTS= 128, DATAPACKING=POINT, ZONETYPE=FELINESEG
1.000000e+00	5.352203e-08	1.016373e+00	0.000000e+00	0.000000e+00	2.542524e+00	0.000000e+00	1.017010e+00	1.000626e+00	0.000000e+00	2.423206e-01	2.959464e-08	9.399769e-15	3.776348e-05	3.471092e+02	2.439179e+02	0.000000e+00	
9.957821e-01	-5.967887e-04	1.015955e+00	0.000000e+00	0.000000e+00	2.537704e+00	0.000000e+00	1.015082e+00	9.991401e-01	0.000000e+00	2.148551e-01	2.956083e-08	2.642121e-03	3.727276e-04	4.380670e+03	1.869159e+00	0.000000e+00	
9.909241e-01	-1.280290e-03	1.015350e+00	0.000000e+00	0.000000e+00	2.536257e+00	0.000000e+00	1.014503e+00	9.991661e-01	0.000000e+00	2.066094e-01	2.956143e-08	1.960066e-03	2.748183e-04	3.135298e+03	1.588999e+00	0.000000e+00	
9.853369e-01	-2.061293e-03	1.013603e+00	0.000000e+00	0.000000e+00	2.532548e+00	0.000000e+00	1.013019e+00	9.994236e-01	0.000000e+00	1.854713e-01	2.956729e-08	1.771703e-03	2.466709e-04	2.628140e+03	1.492422e+00	0.000000e+00	
9.789211e-01	-2.951446e-03	1.012262e+00	0.000000e+00	0.000000e+00	2.529601e+00	0.000000e+00	1.011841e+00	9.995841e-01	0.000000e+00	1.686820e-01	2.957094e-08	1.766227e-03	2.439457e-04	2.430368e+03	1.474590e+00	0.000000e+00	
9.715675e-01	-3.963073e-03	1.010937e+00	0.000000e+00	0.000000e+00	2.526478e+00	0.000000e+00	1.010591e+00	9.996586e-01	0.000000e+00	1.508862e-01	2.957263e-08	1.823918e-03	2.496253e-04	2.354005e+03	1.484850e+00	0.000000e+00	
9.631568e-01	-5.108981e-03	1.009638e+00	0.000000e+00	0.000000e+00	2.523321e+00	0.000000e+00	1.009328e+00	9.996937e-01	0.000000e+00	1.328931e-01	2.957343e-08	1.904299e-03	2.579390e-04	2.324296e+03	1.505142e+00	0.000000e+00	
9.535602e-01	-6.402178e-03	1.008324e+00	0.000000e+00	0.000000e+00	2.520088e+00	0.000000e+00	1.008035e+00	9.997136e-01	0.000000e+00	1.144689e-01	2.957388e-08	1.993210e-03	2.668316e-04	2.314130e+03	1.529101e+00	0.000000e+00	
9.426407e-01	-7.855481e-03	1.006996e+00	0.000000e+00	0.000000e+00	2.516805e+00	0.000000e+00	1.006722e+00	9.997282e-01	0.000000e+00	9.576331e-02	2.957422e-08	2.085171e-03	2.754685e-04	2.313091e+03	1.554329e+00	0.000000e+00	
9.302548e-01	-9.481022e-03	1.005648e+00	0.000000e+00	0.000000e+00	2.513467e+00	0.000000e+00	1.005387e+00	9.997403e-01	0.000000e+00	7.674353e-02	2.957449e-08	2.177737e-03	2.834411e-04	2.316982e+03	1.579795e+00	0.000000e+00	
9.162555e-01	-1.128962e-02	1.004284e+00	0.000000e+00	0.000000e+00	2.510084e+00	0.000000e+00	1.004034e+00	9.997507e-01	0.000000e+00	5.746258e-02	2.957473e-08	2.269727e-03	2.905187e-04	2.323696e+03	1.605028e+00	0.000000e+00	
9.004963e-01	-1.329003e-02	1.002905e+00	0.000000e+00	0.000000e+00	2.506660e+00	0.000000e+00	1.002664e+00	9.997598e-01	0.000000e+00	3.795021e-02	2.957494e-08	2.360590e-03	2.965601e-04	2.332177e+03	1.629823e+00	0.000000e+00	
8.828360e-01	-1.548810e-02	1.001513e+00	0.000000e+00	0.000000e+00	2.503202e+00	0.000000e+00	1.001281e+00	9.997680e-01	0.000000e+00	1.824370e-02	2.957512e-08	2.450109e-03	3.014707e-04	2.341888e+03	1.654101e+00	0.000000e+00	
8.631457e-01	-1.788578e-02	1.000110e+00	0.000000e+00	0.000000e+00	2.499712e+00	0.000000e+00	9.998850e-01	9.997754e-01	0.000000e+00	-1.638553e-03	2.957529e-08	2.538270e-03	3.051827e-04	2.352580e+03	1.677861e+00	0.000000e+00	
8.413160e-01	-2.048016e-02	9.986949e-01	0.000000e+00	0.000000e+00	2.496194e+00	0.000000e+00	9.984774e-01	9.997823e-01	0.000000e+00	-2.169059e-02	2.957545e-08	2.625217e-03	3.076440e-04	2.364139e+03	1.701148e+00	0.000000e+00	
8.172658e-01	-2.326236e-02	9.972662e-01	0.000000e+00	0.000000e+00	2.492638e+00	0.000000e+00	9.970553e-01	9.997885e-01	0.000000e+00	-4.195045e-02	2.957559e-08	2.711284e-03	3.088131e-04	2.376561e+03	1.724065e+00	0.000000e+00	
7.909518e-01	-2.621660e-02	9.958200e-01	0.000000e+00	0.000000e+00	2.489038e+00	0.000000e+00	9.956152e-01	9.997944e-01	0.000000e+00	-6.246578e-02	2.957572e-08	2.796967e-03	3.086444e-04	2.389878e+03	1.746757e+00	0.000000e+00	
7.623778e-01	-2.931924e-02	9.943502e-01	0.000000e+00	0.000000e+00	2.485378e+00	0.000000e+00	9.941512e-01	9.997998e-01	0.000000e+00	-8.332325e-02	2.957584e-08	2.882945e-03	3.070742e-04	2.404186e+03	1.769416e+00	0.000000e+00	
7.316032e-01	-3.253806e-02	9.928499e-01	0.000000e+00	0.000000e+00	2.481640e+00	0.000000e+00	9.926562e-01	9.998049e-01	0.000000e+00	-1.046214e-01	2.957596e-08	2.970051e-03	3.039993e-04	2.419611e+03	1.792267e+00	0.000000e+00	
6.987499e-01	-3.583186e-02	9.913108e-01	0.000000e+00	0.000000e+00	2.477806e+00	0.000000e+00	9.911223e-01	9.998098e-01	0.000000e+00	-1.264736e-01	2.957607e-08	3.059254e-03	2.992545e-04	2.436311e+03	1.815563e+00	0.000000e+00	
6.640066e-01	-3.915032e-02	9.897261e-01	0.000000e+00	0.000000e+00	2.473856e+00	0.000000e+00	9.895425e-01	9.998145e-01	0.000000e+00	-1.489794e-01	2.957618e-08	3.151579e-03	2.925853e-04	2.454432e+03	1.839559e+00	0.000000e+00	
6.276283e-01	-4.243463e-02	9.880885e-01	0.000000e+00	0.000000e+00	2.469774e+00	0.000000e+00	9.879098e-01	9.998191e-01	0.000000e+00	-1.722393e-01	2.957628e-08	3.248048e-03	2.836268e-04	2.474114e+03	1.864497e+00	0.000000e+00	
5.899328e-01	-4.561861e-02	9.863958e-01	0.000000e+00	0.000000e+00	2.465555e+00	0.000000e+00	9.862220e-01	9.998238e-01	0.000000e+00	-1.962833e-01	2.957639e-08	3.349526e-03	2.718825e-04	2.495398e+03	1.890568e+00	0.000000e+00	
5.512916e-01	-4.863091e-02	9.846474e-01	0.000000e+00	0.000000e+00	2.461196e+00	0.000000e+00	9.844784e-01	9.998284e-01	0.000000e+00	-2.211224e-01	2.957650e-08	3.456707e-03	2.567264e-04	2.518301e+03	1.917909e+00	0.000000e+00	
5.121166e-01	-5.139795e-02	9.828499e-01	0.000000e+00	0.000000e+00	2.456715e+00	0.000000e+00	9.826860e-01	9.998332e-01	0.000000e+00	-2.466582e-01	2.957660e-08	3.569964e-03	2.374069e-04	2.542713e+03	1.946578e+00	0.000000e+00	
4.728433e-01	-5.384781e-02	9.810123e-01	0.000000e+00	0.000000e+00	2.452134e+00	0.000000e+00	9.808535e-01	9.998381e-01	0.000000e+00	-2.727642e-01	2.957672e-08	3.689439e-03	2.130811e-04	2.568532e+03	1.976578e+00	0.000000e+00	
4.339121e-01	-5.591460e-02	9.791522e-01	0.000000e+00	0.000000e+00	2.447497e+00	0.000000e+00	9.789988e-01	9.998434e-01	0.000000e+00	-2.991858e-01	2.957684e-08	3.814884e-03	1.828425e-04	2.595539e+03	2.007835e+00	0.000000e+00	
3.957488e-01	-5.754285e-02	9.772891e-01	0.000000e+00	0.000000e+00	2.442855e+00	0.000000e+00	9.771419e-01	9.998493e-01	0.000000e+00	-3.256400e-01	2.957697e-08	3.945626e-03	1.457663e-04	2.623433e+03	2.040190e+00	0.000000e+00	
3.587470e-01	-5.869148e-02	9.754503e-01	0.000000e+00	0.000000e+00	2.438274e+00	0.000000e+00	9.753098e-01	9.998559e-01	0.000000e+00	-3.517406e-01	2.957712e-08	4.081165e-03	1.009768e-04	2.652224e+03	2.073572e+00	0.000000e+00	
3.232528e-01	-5.933656e-02	9.736620e-01	0.000000e+00	0.000000e+00	2.433822e+00	0.000000e+00	9.735288e-01	9.998632e-01	0.000000e+00	-3.771119e-01	2.957729e-08	4.220752e-03	4.765113e-05	2.681873e+03	2.107878e+00	0.000000e+00	
2.895540e-01	-5.947265e-02	9.719553e-01	0.000000e+00	0.000000e+00	2.429576e+00	0.000000e+00	9.718303e-01	9.998714e-01	0.000000e+00	-4.013093e-01	2.957747e-08	4.364170e-03	-1.496186e-05	2.712751e+03	2.143178e+00	0.000000e+00	
2.578733e-01	-5.911242e-02	9.703555e-01	0.000000e+00	0.000000e+00	2.425600e+00	0.000000e+00	9.702398e-01	9.998808e-01	0.000000e+00	-4.239677e-01	2.957769e-08	4.511056e-03	-8.758024e-05	2.745104e+03	2.179526e+00	0.000000e+00	
2.283666e-01	-5.828472e-02	9.688884e-01	0.000000e+00	0.000000e+00	2.421959e+00	0.000000e+00	9.687836e-01	9.998918e-01	0.000000e+00	-4.447136e-01	2.957794e-08	4.660918e-03	-1.709112e-04	2.779096e+03	2.216979e+00	0.000000e+00	
2.011248e-01	-5.703151e-02	9.675749e-01	0.000000e+00	0.000000e+00	2.418705e+00	0.000000e+00	9.674822e-01	9.999042e-01	0.000000e+00	-4.632534e-01	2.957822e-08	4.812857e-03	-2.656708e-04	2.814659e+03	2.255527e+00	0.000000e+00	
1.761797e-01	-5.540400e-02	9.664329e-01	0.000000e+00	0.000000e+00	2.415883e+00	0.000000e+00	9.663531e-01	9.999175e-01	0.000000e+00	-4.793386e-01	2.957852e-08	4.965623e-03	-3.726036e-04	2.851578e+03	2.295122e+00	0.000000e+00	
1.535115e-01	-5.345876e-02	9.654767e-01	0.000000e+00	0.000000e+00	2.413526e+00	0.000000e+00	9.654103e-01	9.999312e-01	0.000000e+00	-4.927701e-01	2.957883e-08	5.117914e-03	-4.925344e-04	2.889579e+03	2.335749e+00	0.000000e+00	
1.330575e-01	-5.125403e-02	9.647201e-01	0.000000e+00	0.000000e+00	2.411668e+00	0.000000e+00	9.646673e-01	9.999453e-01	0.000000e+00	-5.033551e-01	2.957915e-08	5.268512e-03	-6.264367e-04	2.928416e+03	2.377472e+00	0.000000e+00	
1.147221e-01	-4.884662e-02	9.641740e-01	0.000000e+00	0.000000e+00	2.410337e+00	0.000000e+00	9.641350e-01	9.999595e-01	0.000000e+00	-5.109385e-01	2.957948e-08	5.416085e-03	-7.754785e-04	2.967774e+03	2.420391e+00	0.000000e+00	
9.838552e-02	-4.628967e-02	9.638544e-01	0.000000e+00	0.000000e+00	2.409573e+00	0.000000e+00	9.638292e-01	9.999738e-01	0.000000e+00	-5.152941e-01	2.957980e-08	5.559127e-03	-9.410638e-04	3.007352e+03	2.464656e+00	0.000000e+00	
8.391231e-02	-4.363107e-02	9.637823e-01	0.000000e+00	0.000000e+00	2.409427e+00	0.000000e+00	9.637710e-01	9.999882e-01	0.000000e+00	-5.161240e-01	2.958013e-08	5.695609e-03	-1.124811e-03	3.046819e+03	2.510405e+00	0.000000e+00	
7.115831e-02	-4.091264e-02	9.639848e-01	0.000000e+00	0.000000e+00	2.409968e+00	0.000000e+00	9.639871e-01	1.000002e+00	0.000000e+00	-5.130444e-01	2.958045e-08	5.822664e-03	-1.328479e-03	3.085788e+03	2.557723e+00	0.000000e+00	
5.997667e-02	-3.816999e-02	9.645004e-01	0.000000e+00	0.000000e+00	2.411290e+00	0.000000e+00	9.645160e-01	1.000016e+00	0.000000e+00	-5.055106e-01	2.958077e-08	5.936330e-03	-1.553836e-03	3.123904e+03	2.606620e+00	0.000000e+00	
5.022241e-02	-3.543267e-02	9.653822e-01	0.000000e+00	0.000000e+00	2.413525e+00	0.000000e+00	9.654099e-01	1.000029e+00	0.000000e+00	-4.927760e-01	2.958105e-08	6.031202e-03	-1.802420e-03	3.160934e+03	2.656983e+00	0.000000e+00	
4.175588e-02	-3.272472e-02	9.666981e-01	0.000000e+00	0.000000e+00	2.416840e+00	0.000000e+00	9.667360e-01	1.000039e+00	0.000000e+00	-4.738832e-01	2.958129e-08	6.100230e-03	-2.075201e-03	3.196894e+03	2.708555e+00	0.000000e+00	
3.444509e-02	-3.006547e-02	9.685324e-01	0.000000e+00	0.000000e+00	2.421446e+00	0.000000e+00	9.685782e-01	1.000047e+00	0.000000e+00	-4.476390e-01	2.958148e-08	6.135073e-03	-2.372283e-03	3.232255e+03	2.761015e+00	0.000000e+00	
2.816724e-02	-2.747033e-02	9.709853e-01	0.000000e+00	0.000000e+00	2.427595e+00	0.000000e+00	9.710381e-01	1.000054e+00	0.000000e+00	-4.125953e-01	2.958163e-08	6.127138e-03	-2.692826e-03	3.268048e+03	2.814186e+00	0.000000e+00	
2.280944e-02	-2.495170e-02	9.741760e-01	0.000000e+00	0.000000e+00	2.435591e+00	0.000000e+00	9.742364e-01	1.000062e+00	0.000000e+00	-3.670318e-01	2.958181e-08	6.066896e-03	-3.034205e-03	3.305877e+03	2.867842e+00	0.000000e+00	
1.826886e-02	-2.251990e-02	9.782361e-01	0.000000e+00	0.000000e+00	2.445754e+00	0.000000e+00	9.783014e-01	1.000067e+00	0.000000e+00	-3.091213e-01	2.958192e-08	5.940643e-03	-3.389046e-03	3.347960e+03	2.920790e+00	0.000000e+00	
1.445220e-02	-2.018403e-02	9.832966e-01	0.000000e+00	0.000000e+00	2.458384e+00	0.000000e+00	9.833536e-01	1.000058e+00	0.000000e+00	-2.371464e-01	2.958172e-08	5.731042e-03	-3.742690e-03	3.397355e+03	2.970512e+00	0.000000e+00	
1.127516e-02	-1.795263e-02	9.894551e-01	0.000000e+00	0.000000e+00	2.473693e+00	0.000000e+00	9.894770e-01	1.000022e+00	0.000000e+00	-1.499121e-01	2.958090e-08	5.422221e-03	-4.072549e-03	3.458057e+03	3.013570e+00	0.000000e+00	
8.660978e-03	-1.583433e-02	9.967236e-01	0.000000e+00	0.000000e+00	2.491675e+00	0.000000e+00	9.966699e-01	9.999461e-01	0.000000e+00	-4.744053e-02	2.957917e-08	5.006590e-03	-4.349705e-03	3.534535e+03	3.046186e+00	0.000000e+00	
6.539262e-03	-1.383810e-02	1.004992e+00	0.000000e+00	0.000000e+00	2.512035e+00	0.000000e+00	1.004814e+00	9.998232e-01	0.000000e+00	6.858333e-02	2.957638e-08	4.490324e-03	-4.543357e-03	3.631170e+03	3.065033e+00	0.000000e+00	
4.844550e-03	-1.197282e-02	1.013986e+00	0.000000e+00	0.000000e+00	2.534109e+00	0.000000e+00	1.013643e+00	9.996625e-01	0.000000e+00	1.943670e-01	2.957272e-08	3.896457e-03	-4.627626e-03	3.750528e+03	3.067844e+00	0.000000e+00	
3.515320e-03	-1.024671e-02	1.023271e+00	0.000000e+00	0.000000e+00	2.556897e+00	0.000000e+00	1.022759e+00	9.994995e-01	0.000000e+00	3.242267e-01	2.956901e-08	3.261739e-03	-4.587580e-03	3.888958e+03	3.053543e+00	0.000000e+00	
2.493434e-03	-8.666020e-03	1.032347e+00	0.000000e+00	0.000000e+00	2.579235e+00	0.000000e+00	1.031694e+00	9.993677e-01	0.000000e+00	4.515153e-01	2.956601e-08	2.632484e-03	-4.428846e-03	4.044806e+03	3.024356e+00	0.000000e+00	
1.724623e-03	-7.234077e-03	1.040760e+00	0.000000e+00	0.000000e+00	2.599991e+00	0.000000e+00	1.039996e+00	9.992659e-01	0.000000e+00	5.697930e-01	2.956370e-08	2.047612e-03	-4.167717e-03	4.218024e+03	2.982556e+00	0.000000e+00	
1.159193e-03	-5.950300e-03	1.048171e+00	0.000000e+00	0.000000e+00	2.618294e+00	0.000000e+00	1.047318e+00	9.991859e-01	0.000000e+00	6.740931e-01	2.956188e-08	1.532044e-03	-3.822722e-03	4.397405e+03	2.928195e+00	0.000000e+00	
7.531893e-04	-4.810177e-03	1.054402e+00	0.000000e+00	0.000000e+00	2.633687e+00	0.000000e+00	1.053475e+00	9.991207e-01	0.000000e+00	7.618090e-01	2.956039e-08	1.099526e-03	-3.417020e-03	4.565325e+03	2.860890e+00	0.000000e+00	
4.691284e-04	-3.805771e-03	1.059427e+00	0.000000e+00	0.000000e+00	2.646106e+00	0.000000e+00	1.058443e+00	9.990705e-01	0.000000e+00	8.325804e-01	2.955925e-08	7.540820e-04	-2.977822e-03	4.703540e+03	2.781022e+00	0.000000e+00	
2.762360e-04	-2.926719e-03	1.063330e+00	0.000000e+00	0.000000e+00	2.655780e+00	0.000000e+00	1.062312e+00	9.990424e-01	0.000000e+00	8.877057e-01	2.955861e-08	4.912678e-04	-2.532130e-03	4.796600e+03	2.689745e+00	0.000000e+00	
1.500786e-04	-2.161300e-03	1.066257e+00	0.000000e+00	0.000000e+00	2.663104e+00	0.000000e+00	1.065242e+00	9.990480e-01	0.000000e+00	9.294399e-01	2.955874e-08	3.006836e-04	-2.102304e-03	4.832734e+03	2.588254e+00	0.000000e+00	
7.180327e-05	-1.497377e-03	1.068362e+00	0.000000e+00	0.000000e+00	2.668496e+00	0.000000e+00	1.067398e+00	9.990982e-01	0.000000e+00	9.601645e-01	2.955988e-08	1.691114e-04	-1.704243e-03	4.803746e+03	2.477183e+00	0.000000e+00	
2.721276e-05	-9.231024e-04	1.069826e+00	0.000000e+00	0.000000e+00	2.672419e+00	0.000000e+00	1.068968e+00	9.991976e-01	0.000000e+00	9.825212e-01	2.956214e-08	8.303813e-05	-1.346559e-03	4.702638e+03	2.355482e+00	0.000000e+00	
5.818606e-06	-4.273592e-04	1.070685e+00	0.000000e+00	0.000000e+00	2.674884e+00	0.000000e+00	1.069954e+00	9.993173e-01	0.000000e+00	9.965708e-01	2.956487e-08	3.052347e-05	-1.035407e-03	4.528972e+03	2.223002e+00	0.000000e+00	
0.000000e+00	0.000000e+00	1.071418e+00	0.000000e+00	0.000000e+00	2.676969e+00	0.000000e+00	1.070788e+00	9.994115e-01	0.000000e+00	1.008452e+00	2.956701e-08	-1.989589e-16	-7.596473e-04	4.289854e+03	2.051268e+00	0.000000e+00	
5.818606e-06	4.273592e-04	1.072097e+00	0.000000e+00	0.000000e+00	2.678563e+00	0.000000e+00	1.071425e+00	9.993733e-01	0.000000e+00	1.017534e+00	2.956614e-08	-1.696556e-05	-5.755003e-04	4.619137e+03	1.658344e+00	0.000000e+00	
2.721276e-05	9.231024e-04	1.072683e+00	0.000000e+00	0.000000e+00	2.679626e+00	0.000000e+00	1.071851e+00	9.992236e-01	0.000000e+00	1.023593e+00	2.956274e-08	-2.054045e-05	-3.330872e-04	4.875107e+03	1.173050e+00	0.000000e+00	
7.180327e-05	1.497377e-03	1.073072e+00	0.000000e+00	0.000000e+00	2.680174e+00	0.000000e+00	1.072070e+00	9.990655e-01	0.000000e+00	1.026714e+00	2.955914e-08	-2.880737e-06	-2.903102e-05	5.036797e+03	3.240334e-01	0.000000e+00	
1.500786e-04	2.161300e-03	1.073019e+00	0.000000e+00	0.000000e+00	2.679751e+00	0.000000e+00	1.071900e+00	9.989574e-01	0.000000e+00	1.024303e+00	2.955668e-08	4.807682e-05	3.361410e-04	5.116607e+03	1.038300e+00	0.000000e+00	
2.762360e-04	2.926719e-03	1.072372e+00	0.000000e+00	0.000000e+00	2.678016e+00	0.000000e+00	1.071207e+00	9.989129e-01	0.000000e+00	1.014418e+00	2.955566e-08	1.466267e-04	7.557545e-04	5.122987e+03	1.475844e+00	0.000000e+00	
4.691284e-04	3.805771e-03	1.070936e+00	0.000000e+00	0.000000e+00	2.674443e+00	0.000000e+00	1.069777e+00	9.989177e-01	0.000000e+00	9.940576e-01	2.955577e-08	3.081593e-04	1.216902e-03	5.064095e+03	1.787640e+00	0.000000e+00	
7.531893e-04	4.810177e-03	1.068515e+00	0.000000e+00	0.000000e+00	2.668492e+00	0.000000e+00	1.067397e+00	9.989533e-01	0.000000e+00	9.601456e-01	2.955658e-08	5.463043e-04	1.697762e-03	4.947866e+03	2.030295e+00	0.000000e+00	
1.159193e-03	5.950300e-03	1.064927e+00	0.000000e+00	0.000000e+00	2.659665e+00	0.000000e+00	1.063866e+00	9.990039e-01	0.000000e+00	9.098438e-01	2.955774e-08	8.691216e-04	2.168612e-03	4.785134e+03	2.223357e+00	0.000000e+00	
1.724623e-03	7.234077e-03	1.060061e+00	0.000000e+00	0.000000e+00	2.647661e+00	0.000000e+00	1.059064e+00	9.990597e-01	0.000000e+00	8.414378e-01	2.955901e-08	1.275289e-03	2.595729e-03	4.591137e+03	2.375900e+00	0.000000e+00	
2.493434e-03	8.666020e-03	1.053936e+00	0.000000e+00	0.000000e+00	2.632518e+00	0.000000e+00	1.053007e+00	9.991186e-01	0.000000e+00	7.551476e-01	2.956034e-08	1.752562e-03	2.948480e-03	4.385579e+03	2.493816e+00	0.000000e+00	
3.515320e-03	1.024671e-02	1.046733e+00	0.000000e+00	0.000000e+00	2.614709e+00	0.000000e+00	1.045884e+00	9.991887e-01	0.000000e+00	6.536663e-01	2.956194e-08	2.280019e-03	3.206807e-03	4.189855e+03	2.582707e+00	0.000000e+00	
4.844550e-03	1.197282e-02	1.038780e+00	0.000000e+00	0.000000e+00	2.595097e+00	0.000000e+00	1.038039e+00	9.992860e-01	0.000000e+00	5.419062e-01	2.956415e-08	2.832728e-03	3.364289e-03	4.021194e+03	2.648333e+00	0.000000e+00	
6.539262e-03	1.383810e-02	1.030498e+00	0.000000e+00	0.000000e+00	2.574754e+00	0.000000e+00	1.029901e+00	9.994214e-01	0.000000e+00	4.259805e-01	2.956724e-08	3.383012e-03	3.422967e-03	3.884306e+03	2.694788e+00	0.000000e+00	
8.660978e-03	1.583433e-02	1.022320e+00	0.000000e+00	0.000000e+00	2.554718e+00	0.000000e+00	1.021887e+00	9.995769e-01	0.000000e+00	3.118087e-01	2.957077e-08	3.898810e-03	3.387270e-03	3.772418e+03	2.723208e+00	0.000000e+00	
1.127516e-02	1.795263e-02	1.014625e+00	0.000000e+00	0.000000e+00	2.535829e+00	0.000000e+00	1.014331e+00	9.997105e-01	0.000000e+00	2.041674e-01	2.957381e-08	4.354436e-03	3.270552e-03	3.681975e+03	2.735378e+00	0.000000e+00	
1.445220e-02	2.018403e-02	1.007653e+00	0.000000e+00	0.000000e+00	2.518644e+00	0.000000e+00	1.007458e+00	9.998063e-01	0.000000e+00	1.062430e-01	2.957599e-08	4.732239e-03	3.090416e-03	3.604559e+03	2.733035e+00	0.000000e+00	
1.826886e-02	2.251990e-02	1.001510e+00	0.000000e+00	0.000000e+00	2.503446e+00	0.000000e+00	1.001378e+00	9.998686e-01	0.000000e+00	1.963465e-02	2.957741e-08	5.026468e-03	2.867523e-03	3.534014e+03	2.718861e+00	0.000000e+00	
2.280944e-02	2.495170e-02	9.962016e-01	0.000000e+00	0.000000e+00	2.490275e+00	0.000000e+00	9.961098e-01	9.999079e-01	0.000000e+00	-5.542011e-02	2.957830e-08	5.241293e-03	2.621301e-03	3.467294e+03	2.695862e+00	0.000000e+00	
2.816724e-02	2.747033e-02	9.916798e-01	0.000000e+00	0.000000e+00	2.479035e+00	0.000000e+00	9.916139e-01	9.999335e-01	0.000000e+00	-1.194696e-01	2.957889e-08	5.386179e-03	2.367181e-03	3.403343e+03	2.666761e+00	0.000000e+00	
3.444509e-02	3.006547e-02	9.878723e-01	0.000000e+00	0.000000e+00	2.469559e+00	0.000000e+00	9.878235e-01	9.999505e-01	0.000000e+00	-1.734688e-01	2.957927e-08	5.471774e-03	2.115802e-03	3.341798e+03	2.633593e+00	0.000000e+00	
4.175588e-02	3.272472e-02	9.846988e-01	0.000000e+00	0.000000e+00	2.461649e+00	0.000000e+00	9.846597e-01	9.999603e-01	0.000000e+00	-2.185398e-01	2.957950e-08	5.507833e-03	1.873677e-03	3.282402e+03	2.597692e+00	0.000000e+00	
5.022241e-02	3.543267e-02	9.820830e-01	0.000000e+00	0.000000e+00	2.455119e+00	0.000000e+00	9.820477e-01	9.999641e-01	0.000000e+00	-2.557505e-01	2.957958e-08	5.503821e-03	1.644812e-03	3.225009e+03	2.560147e+00	0.000000e+00	
5.997667e-02	3.816999e-02	9.799556e-01	0.000000e+00	0.000000e+00	2.449799e+00	0.000000e+00	9.799198e-01	9.999634e-01	0.000000e+00	-2.860655e-01	2.957957e-08	5.468343e-03	1.431340e-03	3.169541e+03	2.521832e+00	0.000000e+00	
7.115831e-02	4.091264e-02	9.782572e-01	0.000000e+00	0.000000e+00	2.445544e+00	0.000000e+00	9.782176e-01	9.999595e-01	0.000000e+00	-3.103153e-01	2.957948e-08	5.408581e-03	1.234003e-03	3.115959e+03	2.483362e+00	0.000000e+00	
8.391231e-02	4.363107e-02	9.769387e-01	0.000000e+00	0.000000e+00	2.442233e+00	0.000000e+00	9.768932e-01	9.999534e-01	0.000000e+00	-3.291832e-01	2.957934e-08	5.330200e-03	1.052647e-03	3.064248e+03	2.445126e+00	0.000000e+00	
9.838552e-02	4.628967e-02	9.759626e-01	0.000000e+00	0.000000e+00	2.439774e+00	0.000000e+00	9.759095e-01	9.999456e-01	0.000000e+00	-3.431960e-01	2.957916e-08	5.237556e-03	8.866273e-04	3.014423e+03	2.407341e+00	0.000000e+00	
1.147221e-01	4.884662e-02	9.753003e-01	0.000000e+00	0.000000e+00	2.438096e+00	0.000000e+00	9.752386e-01	9.999368e-01	0.000000e+00	-3.527549e-01	2.957896e-08	5.133981e-03	7.350867e-04	2.966520e+03	2.370113e+00	0.000000e+00	
1.330575e-01	5.125403e-02	9.749280e-01	0.000000e+00	0.000000e+00	2.437142e+00	0.000000e+00	9.748569e-01	9.999271e-01	0.000000e+00	-3.581924e-01	2.957874e-08	5.021987e-03	5.971243e-04	2.920548e+03	2.333462e+00	0.000000e+00	
1.535115e-01	5.345876e-02	9.748271e-01	0.000000e+00	0.000000e+00	2.436865e+00	0.000000e+00	9.747462e-01	9.999170e-01	0.000000e+00	-3.597698e-01	2.957851e-08	4.903551e-03	4.719046e-04	2.876544e+03	2.297379e+00	0.000000e+00	
1.761797e-01	5.540400e-02	9.749837e-01	0.000000e+00	0.000000e+00	2.437232e+00	0.000000e+00	9.748926e-01	9.999066e-01	0.000000e+00	-3.576834e-01	2.957827e-08	4.780428e-03	3.587072e-04	2.834599e+03	2.261875e+00	0.000000e+00	
2.011248e-01	5.703151e-02	9.753804e-01	0.000000e+00	0.000000e+00	2.438199e+00	0.000000e+00	9.752795e-01	9.998965e-01	0.000000e+00	-3.521721e-01	2.957804e-08	4.654179e-03	2.569117e-04	2.794764e+03	2.226975e+00	0.000000e+00	
2.283666e-01	5.828472e-02	9.760006e-01	0.000000e+00	0.000000e+00	2.439726e+00	0.000000e+00	9.758904e-01	9.998871e-01	0.000000e+00	-3.434694e-01	2.957783e-08	4.526337e-03	1.659763e-04	2.757132e+03	2.192749e+00	0.000000e+00	
2.578733e-01	5.911242e-02	9.768240e-01	0.000000e+00	0.000000e+00	2.441764e+00	0.000000e+00	9.767055e-01	9.998786e-01	0.000000e+00	-3.318567e-01	2.957764e-08	4.398177e-03	8.538876e-05	2.721710e+03	2.159249e+00	0.000000e+00	
2.895540e-01	5.947265e-02	9.778281e-01	0.000000e+00	0.000000e+00	2.444255e+00	0.000000e+00	9.777021e-01	9.998712e-01	0.000000e+00	-3.176593e-01	2.957747e-08	4.270682e-03	1.464135e-05	2.688380e+03	2.126494e+00	0.000000e+00	
3.232528e-01	5.933656e-02	9.789850e-01	0.000000e+00	0.000000e+00	2.447131e+00	0.000000e+00	9.788522e-01	9.998644e-01	0.000000e+00	-3.012738e-01	2.957731e-08	4.144587e-03	-4.679125e-05	2.656885e+03	2.094473e+00	0.000000e+00	
3.587470e-01	5.869148e-02	9.802673e-01	0.000000e+00	0.000000e+00	2.450320e+00	0.000000e+00	9.801282e-01	9.998580e-01	0.000000e+00	-2.830968e-01	2.957717e-08	4.020627e-03	-9.947901e-05	2.626975e+03	2.063208e+00	0.000000e+00	
3.957488e-01	5.754285e-02	9.816420e-01	0.000000e+00	0.000000e+00	2.453742e+00	0.000000e+00	9.814968e-01	9.998520e-01	0.000000e+00	-2.635996e-01	2.957703e-08	3.899486e-03	-1.440617e-04	2.598381e+03	2.032734e+00	0.000000e+00	
4.339121e-01	5.591460e-02	9.830803e-01	0.000000e+00	0.000000e+00	2.457323e+00	0.000000e+00	9.829292e-01	9.998463e-01	0.000000e+00	-2.431932e-01	2.957690e-08	3.781888e-03	-1.812610e-04	2.570966e+03	2.003134e+00	0.000000e+00	
4.728433e-01	5.384781e-02	9.845523e-01	0.000000e+00	0.000000e+00	2.460990e+00	0.000000e+00	9.843959e-01	9.998411e-01	0.000000e+00	-2.222987e-01	2.957678e-08	3.668504e-03	-2.118721e-04	2.544686e+03	1.974510e+00	0.000000e+00	
5.121166e-01	5.139795e-02	9.860354e-01	0.000000e+00	0.000000e+00	2.464685e+00	0.000000e+00	9.858741e-01	9.998363e-01	0.000000e+00	-2.012400e-01	2.957668e-08	3.559970e-03	-2.367423e-04	2.519675e+03	1.946994e+00	0.000000e+00	
5.512916e-01	4.863091e-02	9.875092e-01	0.000000e+00	0.000000e+00	2.468358e+00	0.000000e+00	9.873433e-01	9.998319e-01	0.000000e+00	-1.803097e-01	2.957658e-08	3.456683e-03	-2.567247e-04	2.496117e+03	1.920682e+00	0.000000e+00	
5.899328e-01	4.561861e-02	9.889621e-01	0.000000e+00	0.000000e+00	2.471979e+00	0.000000e+00	9.887917e-01	9.998277e-01	0.000000e+00	-1.596757e-01	2.957648e-08	3.358738e-03	-2.726302e-04	2.474175e+03	1.895621e+00	0.000000e+00	
6.276283e-01	4.243463e-02	9.903848e-01	0.000000e+00	0.000000e+00	2.475525e+00	0.000000e+00	9.902099e-01	9.998234e-01	0.000000e+00	-1.394717e-01	2.957638e-08	3.265901e-03	-2.851857e-04	2.453953e+03	1.871779e+00	0.000000e+00	
6.640066e-01	3.915032e-02	9.917754e-01	0.000000e+00	0.000000e+00	2.478990e+00	0.000000e+00	9.915960e-01	9.998191e-01	0.000000e+00	-1.197247e-01	2.957628e-08	3.177604e-03	-2.950013e-04	2.435429e+03	1.849043e+00	0.000000e+00	
6.987499e-01	3.583186e-02	9.931338e-01	0.000000e+00	0.000000e+00	2.482375e+00	0.000000e+00	9.929498e-01	9.998147e-01	0.000000e+00	-1.004378e-01	2.957618e-08	3.093083e-03	-3.025637e-04	2.418551e+03	1.827244e+00	0.000000e+00	
7.316032e-01	3.253806e-02	9.944648e-01	0.000000e+00	0.000000e+00	2.485690e+00	0.000000e+00	9.942761e-01	9.998102e-01	0.000000e+00	-8.154415e-02	2.957608e-08	3.011405e-03	-3.082321e-04	2.403174e+03	1.806161e+00	0.000000e+00	
7.623778e-01	2.931924e-02	9.957736e-01	0.000000e+00	0.000000e+00	2.488949e+00	0.000000e+00	9.955798e-01	9.998054e-01	0.000000e+00	-6.297131e-02	2.957597e-08	2.931622e-03	-3.122590e-04	2.389154e+03	1.785561e+00	0.000000e+00	
7.909518e-01	2.621660e-02	9.970664e-01	0.000000e+00	0.000000e+00	2.492168e+00	0.000000e+00	9.968672e-01	9.998002e-01	0.000000e+00	-4.462985e-02	2.957585e-08	2.852841e-03	-3.148100e-04	2.376347e+03	1.765214e+00	0.000000e+00	
8.172658e-01	2.326236e-02	9.983490e-01	0.000000e+00	0.000000e+00	2.495360e+00	0.000000e+00	9.981440e-01	9.997947e-01	0.000000e+00	-2.644045e-02	2.957573e-08	2.774286e-03	-3.159890e-04	2.364653e+03	1.744919e+00	0.000000e+00	
8.413160e-01	2.048016e-02	9.996264e-01	0.000000e+00	0.000000e+00	2.498538e+00	0.000000e+00	9.994152e-01	9.997887e-01	0.000000e+00	-8.331082e-03	2.957559e-08	2.695316e-03	-3.158587e-04	2.354000e+03	1.724506e+00	0.000000e+00	
8.631457e-01	1.788578e-02	1.000902e+00	0.000000e+00	0.000000e+00	2.501709e+00	0.000000e+00	1.000684e+00	9.997822e-01	0.000000e+00	9.737526e-03	2.957544e-08	2.615428e-03	-3.144596e-04	2.344363e+03	1.703837e+00	0.000000e+00	
8.828360e-01	1.548810e-02	1.002177e+00	0.000000e+00	0.000000e+00	2.504878e+00	0.000000e+00	1.001951e+00	9.997750e-01	0.000000e+00	2.779832e-02	2.957528e-08	2.534244e-03	-3.118230e-04	2.335746e+03	1.682810e+00	0.000000e+00	
9.004963e-01	1.329003e-02	1.003452e+00	0.000000e+00	0.000000e+00	2.508045e+00	0.000000e+00	1.003218e+00	9.997671e-01	0.000000e+00	4.584568e-02	2.957510e-08	2.451549e-03	-3.079873e-04	2.328247e+03	1.661370e+00	0.000000e+00	
9.162555e-01	1.128962e-02	1.004726e+00	0.000000e+00	0.000000e+00	2.511207e+00	0.000000e+00	1.004483e+00	9.997583e-01	0.000000e+00	6.386515e-02	2.957490e-08	2.367249e-03	-3.030013e-04	2.322083e+03	1.639498e+00	0.000000e+00	
9.302548e-01	9.481022e-03	1.005997e+00	0.000000e+00	0.000000e+00	2.514359e+00	0.000000e+00	1.005744e+00	9.997482e-01	0.000000e+00	8.182281e-02	2.957467e-08	2.281419e-03	-2.969358e-04	2.317742e+03	1.617235e+00	0.000000e+00	
9.426407e-01	7.855481e-03	1.007264e+00	0.000000e+00	0.000000e+00	2.517496e+00	0.000000e+00	1.006998e+00	9.997364e-01	0.000000e+00	9.969783e-02	2.957440e-08	2.194425e-03	-2.899019e-04	2.316210e+03	1.594731e+00	0.000000e+00	
9.535602e-01	6.402178e-03	1.008524e+00	0.000000e+00	0.000000e+00	2.520609e+00	0.000000e+00	1.008244e+00	9.997221e-01	0.000000e+00	1.174395e-01	2.957408e-08	2.107228e-03	-2.820953e-04	2.319526e+03	1.572373e+00	0.000000e+00	
9.631568e-01	5.108981e-03	1.009784e+00	0.000000e+00	0.000000e+00	2.523708e+00	0.000000e+00	1.009483e+00	9.997026e-01	0.000000e+00	1.351015e-01	2.957363e-08	2.021976e-03	-2.738785e-04	2.331723e+03	1.551052e+00	0.000000e+00	
9.715675e-01	3.963073e-03	1.011042e+00	0.000000e+00	0.000000e+00	2.526765e+00	0.000000e+00	1.010706e+00	9.996680e-01	0.000000e+00	1.525194e-01	2.957285e-08	1.943712e-03	-2.660207e-04	2.362899e+03	1.532906e+00	0.000000e+00	
9.789211e-01	2.951446e-03	1.012346e+00	0.000000e+00	0.000000e+00	2.529835e+00	0.000000e+00	1.011934e+00	9.995932e-01	0.000000e+00	1.700124e-01	2.957114e-08	1.885975e-03	-2.604850e-04	2.439701e+03	1.523810e+00	0.000000e+00	
9.853369e-01	2.061293e-03	1.013675e+00	0.000000e+00	0.000000e+00	2.532745e+00	0.000000e+00	1.013098e+00	9.994312e-01	0.000000e+00	1.865977e-01	2.956746e-08	1.888548e-03	-2.629390e-04	2.636757e+03	1.540895e+00	0.000000e+00	
9.909241e-01	1.280290e-03	1.015450e+00	0.000000e+00	0.000000e+00	2.536525e+00	0.000000e+00	1.014610e+00	9.991724e-01	0.000000e+00	2.081364e-01	2.956157e-08	2.071352e-03	-2.904215e-04	3.143684e+03	1.633558e+00	0.000000e+00	
9.957821e-01	5.967887e-04	1.016016e+00	0.000000e+00	0.000000e+00	2.537869e+00	0.000000e+00	1.015147e+00	9.991456e-01	0.000000e+00	2.157933e-01	2.956096e-08	2.742810e-03	-3.868995e-04	4.390789e+03	1.904489e+00	0.000000e+00	
1	2
2	3
3	4
4	5
5	6
6	7
7	8
8	9
9	10
10	11
11	12
12	13
13	14
14	15
15	16
16	17
17	18
18	19
19	20
20	21
21	22
22	23
23	24
24	25
25	26
26	27
27	28
28	29
29	30
30	31
31	32
32	33
33	34
34	35
35	36
36	37
37	38
38	39
39	40
40	41
41	42
42	43
43	44
44	45
45	46
46	47
47	48
48	49
49	50
50	51
51	52
52	53
53	54
54	55
55	56
56	57
57	58
58	59
59	60
60	61
61	62
62	63
63	64
64	65
65	66
66	67
67	68
68	69
69	70
70	71
71	72
72	73
73	74
74	75
75	76
76	77
77	78
78	79
79	80
80	81
81	82
82	83
83	84
84	85
85	86
86	87
87	88
88	89
89	90
90	91
91	92
92	93
93	94
94	95
95	96
96	97
97	98
98	99
99	100
100	101
101	102
102	103
103	104
104	105
105	106
106	107
107	108
108	109
109	110
110	111
111	112
112	113
113	114
114	115
115	116
116	117
117	118
118	119
119	120
120	121
121	122
122	123
123	124
124	125
125	126
126	127
127	128
128	1
