TITLE = "Visualization of the solution"
VARIABLES = "x","y","Density","Momentum_x","Momentum_y","Energy","Pressure","Temperature","Mach","Pressure_Coefficient"
ZONE NODES= 14576, ELEMENTS= 14336, DATAPACKING=POINT, ZONETYPE=FEQUADRILATERAL
5.010000e+02	5.352203e-08	9.999994e-01	3.746569e-01	-4.571799e-03	2.570194e+00	1.000000e+00	1.000001e+00	3.166666e-01	-1.311037e-07	
4.052710e+02	5.352203e-08	9.999999e-01	3.746552e-01	-4.570762e-03	2.570194e+00	1.000000e+00	1.000000e+00	3.166650e-01	-5.300773e-08	
3.278693e+02	5.352203e-08	1.000000e+00	3.746568e-01	-4.569124e-03	2.570194e+00	1.000000e+00	1.000000e+00	3.166664e-01	3.101196e-07	
2.652863e+02	5.352203e-08	1.000000e+00	3.746580e-01	-4.567023e-03	2.570195e+00	1.000000e+00	9.999998e-01	3.166673e-01	6.729437e-07	
2.146849e+02	5.352203e-08	1.000001e+00	3.746650e-01	-4.564567e-03	2.570197e+00	1.000000e+00	9.999992e-01	3.166731e-01	1.114418e-06	
1.737712e+02	5.352203e-08	1.000001e+00	3.746694e-01	-4.561670e-03	2.570199e+00	1.000000e+00	9.999988e-01	3.166767e-01	1.559763e-06	
1.406904e+02	5.352203e-08	1.000002e+00	3.746788e-01	-4.558165e-03	2.570203e+00	1.000000e+00	9.999978e-01	3.166844e-01	2.381047e-06	
1.139430e+02	5.352203e-08	1.000003e+00	3.746857e-01	-4.553895e-03	2.570205e+00	1.000000e+00	9.999973e-01	3.166901e-01	3.386708e-06	
9.231638e+01	5.352203e-08	1.000003e+00	3.746880e-01	-4.548641e-03	2.570207e+00	1.000000e+00	9.999970e-01	3.166919e-01	5.117483e-06	
7.483022e+01	5.352203e-08	1.000004e+00	3.746918e-01	-4.542168e-03	2.570208e+00	1.000001e+00	9.999966e-01	3.166950e-01	7.436454e-06	
6.069179e+01	5.352203e-08	1.000002e+00	3.746743e-01	-4.534133e-03	2.570202e+00	1.000001e+00	9.999985e-01	3.166803e-01	1.075039e-05	
4.926019e+01	5.352203e-08	1.000001e+00	3.746607e-01	-4.524170e-03	2.570198e+00	1.000001e+00	9.999998e-01	3.166688e-01	1.590472e-05	
4.001717e+01	5.352203e-08	9.999978e-01	3.746232e-01	-4.511883e-03	2.570186e+00	1.000002e+00	1.000004e+00	3.166374e-01	2.312843e-05	
3.254374e+01	5.352203e-08	9.999948e-01	3.745857e-01	-4.496817e-03	2.570174e+00	1.000002e+00	1.000008e+00	3.166059e-01	3.420354e-05	
2.650110e+01	5.352203e-08	9.999917e-01	3.745454e-01	-4.478506e-03	2.570162e+00	1.000004e+00	1.000012e+00	3.165720e-01	5.047179e-05	
2.161534e+01	5.352203e-08	9.999892e-01	3.745054e-01	-4.456320e-03	2.570151e+00	1.000005e+00	1.000016e+00	3.165381e-01	7.492691e-05	
1.766495e+01	5.352203e-08	9.999906e-01	3.744945e-01	-4.429589e-03	2.570153e+00	1.000008e+00	1.000017e+00	3.165280e-01	1.110566e-04	
1.447088e+01	5.352203e-08	9.999930e-01	3.744830e-01	-4.397387e-03	2.570158e+00	1.000012e+00	1.000019e+00	3.165170e-01	1.646298e-04	
1.188831e+01	5.352203e-08	1.000001e+00	3.745066e-01	-4.358712e-03	2.570180e+00	1.000017e+00	1.000016e+00	3.165344e-01	2.442414e-04	
9.800175e+00	5.352203e-08	1.000011e+00	3.745281e-01	-4.312249e-03	2.570208e+00	1.000025e+00	1.000014e+00	3.165493e-01	3.609145e-04	
8.111817e+00	5.352203e-08	1.000024e+00	3.745424e-01	-4.256549e-03	2.570242e+00	1.000037e+00	1.000013e+00	3.165568e-01	5.317039e-04	
6.746697e+00	5.352203e-08	1.000041e+00	3.745421e-01	-4.189996e-03	2.570284e+00	1.000055e+00	1.000014e+00	3.165506e-01	7.797779e-04	
5.642931e+00	5.352203e-08	1.000058e+00	3.744827e-01	-4.111124e-03	2.570322e+00	1.000080e+00	1.000021e+00	3.164929e-01	1.136063e-03	
4.750481e+00	5.352203e-08	1.000082e+00	3.743808e-01	-4.018463e-03	2.570371e+00	1.000115e+00	1.000033e+00	3.163965e-01	1.644271e-03	
4.028892e+00	5.352203e-08	1.000112e+00	3.742042e-01	-3.910998e-03	2.570428e+00	1.000166e+00	1.000054e+00	3.162337e-01	2.359259e-03	
3.445452e+00	5.352203e-08	1.000154e+00	3.739617e-01	-3.787907e-03	2.570509e+00	1.000235e+00	1.000082e+00	3.160100e-01	3.353206e-03	
2.973712e+00	5.352203e-08	1.000211e+00	3.736362e-01	-3.648922e-03	2.570621e+00	1.000331e+00	1.000120e+00	3.157097e-01	4.715486e-03	
2.592287e+00	5.352203e-08	1.000292e+00	3.732150e-01	-3.494365e-03	2.570780e+00	1.000460e+00	1.000168e+00	3.153195e-01	6.553143e-03	
2.283886e+00	5.352203e-08	1.000402e+00	3.727079e-01	-3.325252e-03	2.571011e+00	1.000631e+00	1.000229e+00	3.148455e-01	8.988412e-03	
2.034529e+00	5.352203e-08	1.000555e+00	3.721145e-01	-3.143554e-03	2.571334e+00	1.000853e+00	1.000298e+00	3.142841e-01	1.215321e-02	
1.832911e+00	5.352203e-08	1.000785e+00	3.717242e-01	-2.951939e-03	2.571879e+00	1.001136e+00	1.000350e+00	3.138728e-01	1.617847e-02	
1.669894e+00	5.352203e-08	1.001088e+00	3.713798e-01	-2.754200e-03	2.572608e+00	1.001487e+00	1.000398e+00	3.134783e-01	2.118428e-02	
1.538086e+00	5.352203e-08	1.001526e+00	3.716354e-01	-2.553434e-03	2.573743e+00	1.001915e+00	1.000388e+00	3.135571e-01	2.728701e-02	
1.431513e+00	5.352203e-08	1.002035e+00	3.717695e-01	-2.352981e-03	2.575035e+00	1.002426e+00	1.000390e+00	3.135095e-01	3.456607e-02	
1.345344e+00	5.352203e-08	1.002592e+00	3.715250e-01	-2.154243e-03	2.576402e+00	1.003025e+00	1.000432e+00	3.131218e-01	4.309532e-02	
1.275671e+00	5.352203e-08	1.003095e+00	3.698726e-01	-1.957123e-03	2.577475e+00	1.003713e+00	1.000616e+00	3.115434e-01	5.289163e-02	
1.219338e+00	5.352203e-08	1.003394e+00	3.653199e-01	-1.762283e-03	2.577729e+00	1.004490e+00	1.001092e+00	3.075430e-01	6.396140e-02	
1.173790e+00	5.352203e-08	1.003468e+00	3.575391e-01	-1.567613e-03	2.577089e+00	1.005357e+00	1.001882e+00	3.008513e-01	7.631091e-02	
1.136961e+00	5.352203e-08	1.003225e+00	3.453979e-01	-1.376964e-03	2.575236e+00	1.006311e+00	1.003076e+00	2.905320e-01	8.990327e-02	
1.107184e+00	5.352203e-08	1.002782e+00	3.297068e-01	-1.191898e-03	2.572593e+00	1.007356e+00	1.004561e+00	2.772502e-01	1.047955e-01	
1.083108e+00	5.352203e-08	1.002234e+00	3.110231e-01	-1.017122e-03	2.569495e+00	1.008494e+00	1.006246e+00	2.614626e-01	1.210059e-01	
1.063641e+00	5.352203e-08	1.001695e+00	2.901078e-01	-8.556683e-04	2.566343e+00	1.009733e+00	1.008025e+00	2.437958e-01	1.386603e-01	
1.047901e+00	5.352203e-08	1.001286e+00	2.678531e-01	-7.080891e-04	2.563550e+00	1.011089e+00	1.009790e+00	2.249885e-01	1.579804e-01	
1.035174e+00	5.352203e-08	1.001027e+00	2.439664e-01	-5.745509e-04	2.561170e+00	1.012576e+00	1.011538e+00	2.048003e-01	1.791635e-01	
1.024884e+00	5.352203e-08	1.001008e+00	2.177677e-01	-4.528292e-04	2.559417e+00	1.014292e+00	1.013271e+00	1.826544e-01	2.036040e-01	
1.016564e+00	5.352203e-08	1.001208e+00	1.872696e-01	-3.409160e-04	2.558189e+00	1.016270e+00	1.015044e+00	1.569052e-01	2.317850e-01	
1.009837e+00	5.352203e-08	1.000830e+00	1.481086e-01	-2.345701e-04	2.555374e+00	1.017766e+00	1.016922e+00	1.240260e-01	2.530997e-01	
1.004398e+00	5.352203e-08	1.006551e+00	8.849973e-02	-1.240594e-04	2.567964e+00	1.025629e+00	1.018954e+00	7.361482e-02	3.651203e-01	
1.000000e+00	5.352203e-08	1.007033e+00	6.956403e-03	-2.950826e-05	2.568116e+00	1.027237e+00	1.020062e+00	5.780526e-03	3.880200e-01	
9.957821e-01	-5.967887e-04	1.002211e+00	8.147755e-02	1.154007e-02	2.556881e+00	1.021401e+00	1.019148e+00	6.873996e-02	3.048795e-01	
9.909241e-01	-1.280290e-03	1.002894e+00	1.584586e-01	2.221701e-02	2.561368e+00	1.019441e+00	1.016500e+00	1.337428e-01	2.769629e-01	
9.853369e-01	-2.061293e-03	1.002231e+00	2.110828e-01	2.938798e-02	2.562557e+00	1.015959e+00	1.013697e+00	1.784988e-01	2.273585e-01	
9.789211e-01	-2.951446e-03	1.002340e+00	2.449107e-01	3.382659e-02	2.565107e+00	1.013846e+00	1.011480e+00	2.072782e-01	1.972557e-01	
9.715675e-01	-3.963073e-03	1.002108e+00	2.685195e-01	3.675047e-02	2.566306e+00	1.011863e+00	1.009734e+00	2.274698e-01	1.689978e-01	
9.631568e-01	-5.108981e-03	1.001865e+00	2.869391e-01	3.886638e-02	2.567194e+00	1.010140e+00	1.008260e+00	2.432642e-01	1.444564e-01	
9.535602e-01	-6.402178e-03	1.001536e+00	3.021864e-01	4.045390e-02	2.567680e+00	1.008510e+00	1.006963e+00	2.563862e-01	1.212334e-01	
9.426407e-01	-7.855481e-03	1.001142e+00	3.150121e-01	4.161579e-02	2.567838e+00	1.006965e+00	1.005817e+00	2.674639e-01	9.923131e-02	
9.302548e-01	-9.481022e-03	1.000666e+00	3.259692e-01	4.242619e-02	2.567657e+00	1.005466e+00	1.004797e+00	2.769695e-01	7.787158e-02	
9.162555e-01	-1.128962e-02	1.000120e+00	3.354494e-01	4.293657e-02	2.567185e+00	1.004003e+00	1.003882e+00	2.852320e-01	5.702198e-02	
9.004963e-01	-1.329003e-02	9.995101e-01	3.438066e-01	4.319227e-02	2.566463e+00	1.002560e+00	1.003051e+00	2.925512e-01	3.646664e-02	
8.828360e-01	-1.548810e-02	9.988446e-01	3.512681e-01	4.322132e-02	2.565525e+00	1.001130e+00	1.002288e+00	2.991187e-01	1.609204e-02	
8.631457e-01	-1.788578e-02	9.981288e-01	3.580382e-01	4.304781e-02	2.564403e+00	9.997036e-01	1.001578e+00	3.051075e-01	-4.222235e-03	
8.413160e-01	-2.048016e-02	9.973668e-01	3.642451e-01	4.268512e-02	2.563115e+00	9.982756e-01	1.000911e+00	3.106267e-01	-2.456674e-02	
8.172658e-01	-2.326236e-02	9.965604e-01	3.700173e-01	4.214464e-02	2.561678e+00	9.968375e-01	1.000278e+00	3.157860e-01	-4.505330e-02	
7.909518e-01	-2.621660e-02	9.957103e-01	3.754340e-01	4.142898e-02	2.560098e+00	9.953829e-01	9.996712e-01	3.206537e-01	-6.577631e-02	
7.623778e-01	-2.931924e-02	9.948156e-01	3.805917e-01	4.053834e-02	2.558386e+00	9.939030e-01	9.990826e-01	3.253133e-01	-8.685898e-02	
7.316032e-01	-3.253806e-02	9.938736e-01	3.855376e-01	3.946165e-02	2.556536e+00	9.923898e-01	9.985070e-01	3.298065e-01	-1.084166e-01	
6.987499e-01	-3.583186e-02	9.928817e-01	3.903538e-01	3.818417e-02	2.554553e+00	9.908338e-01	9.979374e-01	3.342052e-01	-1.305829e-01	
6.640066e-01	-3.915032e-02	9.918364e-01	3.950558e-01	3.667604e-02	2.552424e+00	9.892277e-01	9.973699e-01	3.385242e-01	-1.534638e-01	
6.276283e-01	-4.243463e-02	9.907347e-01	3.997171e-01	3.490417e-02	2.550157e+00	9.875633e-01	9.967989e-01	3.428287e-01	-1.771756e-01	
5.899328e-01	-4.561861e-02	9.895763e-01	4.043239e-01	3.281913e-02	2.547740e+00	9.858384e-01	9.962227e-01	3.471074e-01	-2.017485e-01	
5.512916e-01	-4.863091e-02	9.883626e-01	4.089311e-01	3.037092e-02	2.545193e+00	9.840516e-01	9.956383e-01	3.514095e-01	-2.272027e-01	
5.121166e-01	-5.139795e-02	9.870994e-01	4.134916e-01	2.749768e-02	2.542514e+00	9.822105e-01	9.950472e-01	3.556953e-01	-2.534318e-01	
4.728433e-01	-5.384781e-02	9.857948e-01	4.180381e-01	2.414350e-02	2.539741e+00	9.803233e-01	9.944497e-01	3.599955e-01	-2.803172e-01	
4.339121e-01	-5.591460e-02	9.844623e-01	4.224812e-01	2.024896e-02	2.536884e+00	9.784088e-01	9.938509e-01	3.642352e-01	-3.075916e-01	
3.957488e-01	-5.754285e-02	9.831174e-01	4.268322e-01	1.576877e-02	2.533999e+00	9.764861e-01	9.932549e-01	3.684288e-01	-3.349823e-01	
3.587470e-01	-5.869148e-02	9.817804e-01	4.309697e-01	1.066311e-02	2.531107e+00	9.745834e-01	9.926694e-01	3.724765e-01	-3.620884e-01	
3.232528e-01	-5.933656e-02	9.804708e-01	4.348844e-01	4.909705e-03	2.528274e+00	9.727262e-01	9.921012e-01	3.763785e-01	-3.885461e-01	
2.895540e-01	-5.947265e-02	9.792128e-01	4.384642e-01	-1.503209e-03	2.525535e+00	9.709470e-01	9.915587e-01	3.800462e-01	-4.138938e-01	
2.578733e-01	-5.911242e-02	9.780237e-01	4.416706e-01	-8.574868e-03	2.522941e+00	9.692700e-01	9.910496e-01	3.834593e-01	-4.377843e-01	
2.283666e-01	-5.828472e-02	9.769249e-01	4.444388e-01	-1.629713e-02	2.520538e+00	9.677224e-01	9.905802e-01	3.865750e-01	-4.598307e-01	
2.011248e-01	-5.703151e-02	9.759290e-01	4.467179e-01	-2.465895e-02	2.518358e+00	9.663227e-01	9.901568e-01	3.893676e-01	-4.797721e-01	
1.761797e-01	-5.540400e-02	9.750496e-01	4.484355e-01	-3.364908e-02	2.516422e+00	9.650887e-01	9.897842e-01	3.917943e-01	-4.973511e-01	
1.535115e-01	-5.345876e-02	9.742956e-01	4.495610e-01	-4.326456e-02	2.514760e+00	9.640323e-01	9.894659e-01	3.938541e-01	-5.124011e-01	
1.330575e-01	-5.125403e-02	9.736773e-01	4.500192e-01	-5.350818e-02	2.513386e+00	9.631677e-01	9.892063e-01	3.955096e-01	-5.247183e-01	
1.147221e-01	-4.884662e-02	9.732013e-01	4.497536e-01	-6.439602e-02	2.512314e+00	9.625037e-01	9.890078e-01	3.967480e-01	-5.341778e-01	
9.838552e-02	-4.628967e-02	9.728798e-01	4.487070e-01	-7.595829e-02	2.511583e+00	9.620570e-01	9.888755e-01	3.975612e-01	-5.405415e-01	
8.391231e-02	-4.363107e-02	9.727266e-01	4.467510e-01	-8.822769e-02	2.511208e+00	9.618464e-01	9.888147e-01	3.978884e-01	-5.435415e-01	
7.115831e-02	-4.091264e-02	9.727632e-01	4.438120e-01	-1.012586e-01	2.511262e+00	9.619000e-01	9.888327e-01	3.977276e-01	-5.427773e-01	
5.997667e-02	-3.816999e-02	9.730144e-01	4.396543e-01	-1.150796e-01	2.511770e+00	9.622547e-01	9.889419e-01	3.969470e-01	-5.377248e-01	
5.022241e-02	-3.543267e-02	9.735224e-01	4.341291e-01	-1.297391e-01	2.512854e+00	9.629649e-01	9.891553e-01	3.955055e-01	-5.276077e-01	
4.175588e-02	-3.272472e-02	9.743336e-01	4.268942e-01	-1.452226e-01	2.514588e+00	9.640982e-01	9.894949e-01	3.932062e-01	-5.114622e-01	
3.444509e-02	-3.006547e-02	9.755145e-01	4.176763e-01	-1.615052e-01	2.517144e+00	9.657434e-01	9.899837e-01	3.899294e-01	-4.880241e-01	
2.816724e-02	-2.747033e-02	9.771391e-01	4.060084e-01	-1.784374e-01	2.520659e+00	9.680066e-01	9.906538e-01	3.853912e-01	-4.557823e-01	
2.280944e-02	-2.495170e-02	9.793024e-01	3.914832e-01	-1.957905e-01	2.525362e+00	9.710162e-01	9.915387e-01	3.793623e-01	-4.129076e-01	
1.826886e-02	-2.251990e-02	9.820984e-01	3.735785e-01	-2.131209e-01	2.531440e+00	9.749055e-01	9.926760e-01	3.714850e-01	-3.575001e-01	
1.445220e-02	-2.018403e-02	9.856209e-01	3.518749e-01	-2.297941e-01	2.539110e+00	9.798044e-01	9.940986e-01	3.614372e-01	-2.877097e-01	
1.127516e-02	-1.795263e-02	9.899377e-01	3.260462e-01	-2.448886e-01	2.548507e+00	9.858094e-01	9.958297e-01	3.488599e-01	-2.021608e-01	
8.660978e-03	-1.583433e-02	9.950565e-01	2.960968e-01	-2.572481e-01	2.559649e+00	9.929367e-01	9.978696e-01	3.335032e-01	-1.006255e-01	
6.539262e-03	-1.383810e-02	1.000897e+00	2.624544e-01	-2.655546e-01	2.572347e+00	1.001084e+00	1.000186e+00	3.152389e-01	1.543815e-02	
4.844550e-03	-1.197282e-02	1.007272e+00	2.261401e-01	-2.685761e-01	2.586187e+00	1.009998e+00	1.002707e+00	2.941950e-01	1.424384e-01	
3.515320e-03	-1.024671e-02	1.013888e+00	1.887228e-01	-2.654369e-01	2.600520e+00	1.019284e+00	1.005322e+00	2.707671e-01	2.747211e-01	
2.493434e-03	-8.666020e-03	1.020405e+00	1.521483e-01	-2.559738e-01	2.614604e+00	1.028462e+00	1.007896e+00	2.456677e-01	4.054733e-01	
1.724623e-03	-7.234077e-03	1.026481e+00	1.183083e-01	-2.408086e-01	2.627703e+00	1.037056e+00	1.010301e+00	2.197771e-01	5.278997e-01	
1.159193e-03	-5.950300e-03	1.031858e+00	8.866327e-02	-2.212361e-01	2.639260e+00	1.044694e+00	1.012439e+00	1.940130e-01	6.367110e-01	
7.531893e-04	-4.810177e-03	1.036402e+00	6.400324e-02	-1.989131e-01	2.649000e+00	1.051174e+00	1.014253e+00	1.691962e-01	7.290337e-01	
4.691284e-04	-3.805771e-03	1.040094e+00	4.443863e-02	-1.754995e-01	2.656897e+00	1.056457e+00	1.015732e+00	1.459635e-01	8.042896e-01	
2.762360e-04	-2.926719e-03	1.042999e+00	2.955556e-02	-1.523604e-01	2.663102e+00	1.060622e+00	1.016897e+00	1.247117e-01	8.636301e-01	
1.500786e-04	-2.161300e-03	1.045226e+00	1.865368e-02	-1.304592e-01	2.667855e+00	1.063819e+00	1.017788e+00	1.056250e-01	9.091731e-01	
7.180327e-05	-1.497377e-03	1.046898e+00	1.094438e-02	-1.103582e-01	2.671422e+00	1.066219e+00	1.018456e+00	8.871368e-02	9.433691e-01	
2.721276e-05	-9.231024e-04	1.048131e+00	5.684344e-03	-9.230116e-02	2.674054e+00	1.067990e+00	1.018947e+00	7.387098e-02	9.685915e-01	
5.818606e-06	-4.273592e-04	1.048977e+00	2.239170e-03	-7.626315e-02	2.675840e+00	1.069226e+00	1.019303e+00	6.088636e-02	9.862034e-01	
0.000000e+00	0.000000e+00	1.049585e+00	-9.907441e-06	-6.166422e-02	2.677114e+00	1.070121e+00	1.019566e+00	4.917496e-02	9.989531e-01	
5.818606e-06	4.273592e-04	1.050156e+00	-1.396217e-03	-4.705353e-02	2.678355e+00	1.070920e+00	1.019772e+00	3.751577e-02	1.010335e+00	
2.721276e-05	9.231024e-04	1.050603e+00	-1.914431e-03	-3.091815e-02	2.679325e+00	1.071547e+00	1.019935e+00	2.467490e-02	1.019272e+00	
7.180327e-05	1.497377e-03	1.050877e+00	-1.243596e-03	-1.246553e-02	2.679913e+00	1.071935e+00	1.020039e+00	9.975552e-03	1.024803e+00	
1.500786e-04	2.161300e-03	1.050911e+00	1.225337e-03	8.607189e-03	2.679989e+00	1.071981e+00	1.020050e+00	6.922736e-03	1.025453e+00	
2.762360e-04	2.926719e-03	1.050594e+00	6.262666e-03	3.230470e-02	2.679318e+00	1.071521e+00	1.019920e+00	2.621170e-02	1.018902e+00	
4.691284e-04	3.805771e-03	1.049781e+00	1.476185e-02	5.830985e-02	2.677591e+00	1.070347e+00	1.019591e+00	4.795739e-02	1.002178e+00	
7.531893e-04	4.810177e-03	1.048314e+00	2.763025e-02	8.587774e-02	2.674467e+00	1.068234e+00	1.019002e+00	7.204886e-02	9.720714e-01	
1.159193e-03	5.950300e-03	1.046042e+00	4.560741e-02	1.138055e-01	2.669617e+00	1.064973e+00	1.018098e+00	9.817403e-02	9.256103e-01	
1.724623e-03	7.234077e-03	1.042862e+00	6.900578e-02	1.404592e-01	2.662810e+00	1.060427e+00	1.016843e+00	1.257713e-01	8.608568e-01	
2.493434e-03	8.666020e-03	1.038765e+00	9.749651e-02	1.640294e-01	2.654015e+00	1.054595e+00	1.015239e+00	1.540820e-01	7.777746e-01	
3.515320e-03	1.024671e-02	1.033863e+00	1.300051e-01	1.828520e-01	2.643461e+00	1.047647e+00	1.013332e+00	1.821953e-01	6.787868e-01	
4.844550e-03	1.197282e-02	1.028390e+00	1.648946e-01	1.958384e-01	2.631654e+00	1.039915e+00	1.011206e+00	2.092286e-01	5.686308e-01	
6.539262e-03	1.383810e-02	1.022652e+00	2.002575e-01	2.026236e-01	2.619252e+00	1.031828e+00	1.008973e+00	2.343892e-01	4.534326e-01	
8.660978e-03	1.583433e-02	1.016958e+00	2.343631e-01	2.036143e-01	2.606932e+00	1.023817e+00	1.006745e+00	2.571448e-01	3.393040e-01	
1.127516e-02	1.795263e-02	1.011552e+00	2.658724e-01	1.996932e-01	2.595216e+00	1.016226e+00	1.004621e+00	2.771767e-01	2.311535e-01	
1.445220e-02	2.018403e-02	1.006603e+00	2.940616e-01	1.920389e-01	2.584486e+00	1.009286e+00	1.002665e+00	2.944906e-01	1.322900e-01	
1.826886e-02	2.251990e-02	1.002200e+00	3.185986e-01	1.817558e-01	2.574920e+00	1.003119e+00	1.000917e+00	3.091779e-01	4.443432e-02	
2.280944e-02	2.495170e-02	9.983651e-01	3.396051e-01	1.698450e-01	2.566585e+00	9.977511e-01	9.993850e-01	3.215371e-01	-3.203885e-02	
2.816724e-02	2.747033e-02	9.950749e-01	3.572958e-01	1.570286e-01	2.559413e+00	9.931506e-01	9.980662e-01	3.318001e-01	-9.757700e-02	
3.444509e-02	3.006547e-02	9.922878e-01	3.720944e-01	1.438799e-01	2.553338e+00	9.892569e-01	9.969455e-01	3.403091e-01	-1.530483e-01	
4.175588e-02	3.272472e-02	9.899493e-01	3.843239e-01	1.307409e-01	2.548219e+00	9.859932e-01	9.960037e-01	3.472711e-01	-1.995428e-01	
5.022241e-02	3.543267e-02	9.880077e-01	3.944008e-01	1.178664e-01	2.543966e+00	9.832863e-01	9.952213e-01	3.529633e-01	-2.381059e-01	
5.997667e-02	3.816999e-02	9.864150e-01	4.026007e-01	1.053809e-01	2.540460e+00	9.810684e-01	9.945798e-01	3.575370e-01	-2.697018e-01	
7.115831e-02	4.091264e-02	9.851298e-01	4.092275e-01	9.336793e-02	2.537627e+00	9.792818e-01	9.940638e-01	3.611765e-01	-2.951541e-01	
8.391231e-02	4.363107e-02	9.841182e-01	4.144703e-01	8.185270e-02	2.535379e+00	9.778783e-01	9.936593e-01	3.639749e-01	-3.151496e-01	
9.838552e-02	4.628967e-02	9.833535e-01	4.185284e-01	7.084960e-02	2.533670e+00	9.768208e-01	9.933567e-01	3.660445e-01	-3.302136e-01	
1.147221e-01	4.884662e-02	9.828161e-01	4.215248e-01	6.035422e-02	2.532451e+00	9.760812e-01	9.931474e-01	3.674402e-01	-3.407505e-01	
1.330575e-01	5.125403e-02	9.824879e-01	4.235771e-01	5.036416e-02	2.531688e+00	9.756357e-01	9.930257e-01	3.682217e-01	-3.470970e-01	
1.535115e-01	5.345876e-02	9.823564e-01	4.247783e-01	4.087955e-02	2.531354e+00	9.754660e-01	9.929859e-01	3.684339e-01	-3.495142e-01	
1.761797e-01	5.540400e-02	9.824113e-01	4.251945e-01	3.190516e-02	2.531427e+00	9.755582e-01	9.930242e-01	3.681032e-01	-3.482016e-01	
2.011248e-01	5.703151e-02	9.826404e-01	4.248883e-01	2.345395e-02	2.531878e+00	9.758955e-01	9.931360e-01	3.672590e-01	-3.433955e-01	
2.283666e-01	5.828472e-02	9.830312e-01	4.239111e-01	1.554440e-02	2.532678e+00	9.764616e-01	9.933170e-01	3.659243e-01	-3.353313e-01	
2.578733e-01	5.911242e-02	9.835705e-01	4.223436e-01	8.199644e-03	2.533804e+00	9.772372e-01	9.935609e-01	3.641506e-01	-3.242827e-01	
2.895540e-01	5.947265e-02	9.842409e-01	4.202369e-01	1.440719e-03	2.535212e+00	9.781992e-01	9.938616e-01	3.619665e-01	-3.105775e-01	
3.232528e-01	5.933656e-02	9.850219e-01	4.176642e-01	-4.715294e-03	2.536859e+00	9.793200e-01	9.942115e-01	3.594228e-01	-2.946100e-01	
3.587470e-01	5.869148e-02	9.858926e-01	4.146965e-01	-1.026048e-02	2.538698e+00	9.805710e-01	9.946022e-01	3.565700e-01	-2.767881e-01	
3.957488e-01	5.754285e-02	9.868284e-01	4.114276e-01	-1.519967e-02	2.540680e+00	9.819190e-01	9.950250e-01	3.534817e-01	-2.575851e-01	
4.339121e-01	5.591460e-02	9.878075e-01	4.079107e-01	-1.955062e-02	2.542751e+00	9.833342e-01	9.954715e-01	3.501972e-01	-2.374240e-01	
4.728433e-01	5.384781e-02	9.888067e-01	4.042055e-01	-2.334460e-02	2.544858e+00	9.847867e-01	9.959345e-01	3.467644e-01	-2.167302e-01	
5.121166e-01	5.139795e-02	9.898089e-01	4.003614e-01	-2.662451e-02	2.546961e+00	9.862531e-01	9.964076e-01	3.432231e-01	-1.958407e-01	
5.512916e-01	4.863091e-02	9.907971e-01	3.964289e-01	-2.944240e-02	2.549026e+00	9.877123e-01	9.968865e-01	3.396160e-01	-1.750521e-01	
5.899328e-01	4.561861e-02	9.917622e-01	3.924236e-01	-3.185318e-02	2.551029e+00	9.891519e-01	9.973680e-01	3.359556e-01	-1.545432e-01	
6.276283e-01	4.243463e-02	9.926947e-01	3.883476e-01	-3.391135e-02	2.552946e+00	9.905622e-01	9.978517e-01	3.322442e-01	-1.344528e-01	
6.640066e-01	3.915032e-02	9.935922e-01	3.841947e-01	-3.566773e-02	2.554771e+00	9.919407e-01	9.983378e-01	3.284763e-01	-1.148145e-01	
6.987499e-01	3.583186e-02	9.944515e-01	3.799472e-01	-3.716620e-02	2.556495e+00	9.932873e-01	9.988293e-01	3.246369e-01	-9.563039e-02	
7.316032e-01	3.253806e-02	9.952750e-01	3.755669e-01	-3.844110e-02	2.558120e+00	9.946069e-01	9.993287e-01	3.206928e-01	-7.683107e-02	
7.623778e-01	2.931924e-02	9.960629e-01	3.710026e-01	-3.951697e-02	2.559640e+00	9.959049e-01	9.998414e-01	3.165996e-01	-5.833937e-02	
7.909518e-01	2.621660e-02	9.968180e-01	3.662044e-01	-4.041051e-02	2.561056e+00	9.971881e-01	1.000371e+00	3.123139e-01	-4.005821e-02	
8.172658e-01	2.326236e-02	9.975397e-01	3.611059e-01	-4.112965e-02	2.562365e+00	9.984631e-01	1.000926e+00	3.077786e-01	-2.189522e-02	
8.413160e-01	2.048016e-02	9.982297e-01	3.556397e-01	-4.167668e-02	2.563563e+00	9.997364e-01	1.001509e+00	3.029354e-01	-3.755303e-03	
8.631457e-01	1.788578e-02	9.988846e-01	3.497046e-01	-4.204585e-02	2.564634e+00	1.001014e+00	1.002131e+00	2.976982e-01	1.443847e-02	
8.828360e-01	1.548810e-02	9.995034e-01	3.431997e-01	-4.222857e-02	2.565566e+00	1.002301e+00	1.002799e+00	2.919810e-01	3.277528e-02	
9.004963e-01	1.329003e-02	1.000079e+00	3.359704e-01	-4.220784e-02	2.566332e+00	1.003603e+00	1.003524e+00	2.856533e-01	5.133087e-02	
9.162555e-01	1.128962e-02	1.000607e+00	3.278479e-01	-4.196364e-02	2.566910e+00	1.004928e+00	1.004318e+00	2.785722e-01	7.020784e-02	
9.302548e-01	9.481022e-03	1.001078e+00	3.185688e-01	-4.146303e-02	2.567254e+00	1.006283e+00	1.005199e+00	2.705159e-01	8.950641e-02	
9.426407e-01	7.855481e-03	1.001487e+00	3.078273e-01	-4.066666e-02	2.567337e+00	1.007681e+00	1.006185e+00	2.612258e-01	1.094264e-01	
9.535602e-01	6.402178e-03	1.001818e+00	2.951816e-01	-3.951622e-02	2.567095e+00	1.009132e+00	1.007300e+00	2.503307e-01	1.300890e-01	
9.631568e-01	5.108981e-03	1.002092e+00	2.801510e-01	-3.794700e-02	2.566562e+00	1.010673e+00	1.008564e+00	2.374198e-01	1.520549e-01	
9.715675e-01	3.963073e-03	1.002282e+00	2.619027e-01	-3.584496e-02	2.565643e+00	1.012313e+00	1.010008e+00	2.217958e-01	1.754189e-01	
9.789211e-01	2.951446e-03	1.002467e+00	2.384699e-01	-3.293710e-02	2.564447e+00	1.014217e+00	1.011720e+00	2.017774e-01	2.025347e-01	
9.853369e-01	2.061293e-03	1.002324e+00	2.048043e-01	-2.851400e-02	2.561960e+00	1.016252e+00	1.013896e+00	1.731566e-01	2.315327e-01	
9.909241e-01	1.280290e-03	1.002974e+00	1.527706e-01	-2.141985e-02	2.560967e+00	1.019642e+00	1.016618e+00	1.289242e-01	2.798165e-01	
9.957821e-01	5.967887e-04	1.002325e+00	7.771516e-02	-1.100770e-02	2.556875e+00	1.021521e+00	1.019151e+00	6.555825e-02	3.065853e-01	
5.010000e+02	-3.566236e-06	9.999994e-01	3.746570e-01	-4.571799e-03	2.570194e+00	1.000000e+00	1.000001e+00	3.166666e-01	-1.398104e-07	
4.052710e+02	-3.566240e-06	9.999999e-01	3.746553e-01	-4.570762e-03	2.570194e+00	1.000000e+00	1.000000e+00	3.166651e-01	-4.816863e-08	
3.278693e+02	-3.566245e-06	1.000000e+00	3.746570e-01	-4.569124e-03	2.570194e+00	1.000000e+00	1.000000e+00	3.166665e-01	3.092835e-07	
2.652863e+02	-3.566251e-06	1.000000e+00	3.746582e-01	-4.567023e-03	2.570195e+00	1.000000e+00	9.999998e-01	3.166674e-01	6.740751e-07	
2.146849e+02	-3.566258e-06	1.000001e+00	3.746653e-01	-4.564568e-03	2.570198e+00	1.000000e+00	9.999992e-01	3.166733e-01	1.112185e-06	
1.737712e+02	-3.566267e-06	1.000001e+00	3.746696e-01	-4.561670e-03	2.570199e+00	1.000000e+00	9.999988e-01	3.166769e-01	1.562653e-06	
1.406904e+02	-3.566279e-06	1.000002e+00	3.746790e-01	-4.558165e-03	2.570203e+00	1.000000e+00	9.999978e-01	3.166846e-01	2.380737e-06	
1.139430e+02	-3.566293e-06	1.000003e+00	3.746859e-01	-4.553895e-03	2.570206e+00	1.000000e+00	9.999972e-01	3.166903e-01	3.387176e-06	
9.231638e+01	-3.566310e-06	1.000003e+00	3.746881e-01	-4.548641e-03	2.570207e+00	1.000000e+00	9.999970e-01	3.166920e-01	5.118636e-06	
7.483022e+01	-3.566332e-06	1.000004e+00	3.746920e-01	-4.542168e-03	2.570208e+00	1.000001e+00	9.999966e-01	3.166951e-01	7.435134e-06	
6.069179e+01	-3.566358e-06	1.000002e+00	3.746742e-01	-4.534133e-03	2.570202e+00	1.000001e+00	9.999985e-01	3.166802e-01	1.074923e-05	
4.926019e+01	-3.566391e-06	1.000001e+00	3.746608e-01	-4.524170e-03	2.570198e+00	1.000001e+00	9.999998e-01	3.166689e-01	1.590625e-05	
4.001717e+01	-3.566432e-06	9.999978e-01	3.746231e-01	-4.511883e-03	2.570186e+00	1.000002e+00	1.000004e+00	3.166374e-01	2.313214e-05	
3.254374e+01	-3.566482e-06	9.999948e-01	3.745857e-01	-4.496817e-03	2.570174e+00	1.000002e+00	1.000008e+00	3.166059e-01	3.419897e-05	
2.650110e+01	-3.566544e-06	9.999917e-01	3.745454e-01	-4.478507e-03	2.570162e+00	1.000004e+00	1.000012e+00	3.165720e-01	5.047244e-05	
2.161534e+01	-3.566621e-06	9.999892e-01	3.745053e-01	-4.456319e-03	2.570151e+00	1.000005e+00	1.000016e+00	3.165380e-01	7.492594e-05	
1.766495e+01	-3.566716e-06	9.999906e-01	3.744946e-01	-4.429589e-03	2.570153e+00	1.000008e+00	1.000017e+00	3.165281e-01	1.110614e-04	
1.447088e+01	-3.566834e-06	9.999930e-01	3.744830e-01	-4.397387e-03	2.570158e+00	1.000012e+00	1.000019e+00	3.165170e-01	1.646234e-04	
1.188831e+01	-3.566980e-06	1.000001e+00	3.745071e-01	-4.358713e-03	2.570180e+00	1.000017e+00	1.000016e+00	3.165348e-01	2.442400e-04	
9.800175e+00	-3.567160e-06	1.000011e+00	3.745287e-01	-4.312250e-03	2.570208e+00	1.000025e+00	1.000014e+00	3.165497e-01	3.609150e-04	
8.111817e+00	-3.567382e-06	1.000024e+00	3.745432e-01	-4.256549e-03	2.570242e+00	1.000037e+00	1.000013e+00	3.165575e-01	5.317032e-04	
6.746697e+00	-3.567658e-06	1.000041e+00	3.745431e-01	-4.189996e-03	2.570284e+00	1.000055e+00	1.000014e+00	3.165514e-01	7.797765e-04	
5.642931e+00	-3.567998e-06	1.000058e+00	3.744821e-01	-4.111124e-03	2.570322e+00	1.000080e+00	1.000022e+00	3.164924e-01	1.136059e-03	
4.750481e+00	-3.568420e-06	1.000082e+00	3.743784e-01	-4.018462e-03	2.570370e+00	1.000115e+00	1.000034e+00	3.163945e-01	1.644270e-03	
4.028892e+00	-3.568941e-06	1.000111e+00	3.741968e-01	-3.910994e-03	2.570426e+00	1.000166e+00	1.000055e+00	3.162276e-01	2.359252e-03	
3.445452e+00	-3.569585e-06	1.000152e+00	3.739494e-01	-3.787901e-03	2.570504e+00	1.000235e+00	1.000083e+00	3.159999e-01	3.353205e-03	
2.973712e+00	-3.570382e-06	1.000209e+00	3.736200e-01	-3.648913e-03	2.570616e+00	1.000331e+00	1.000122e+00	3.156963e-01	4.715479e-03	
2.592287e+00	-3.571367e-06	1.000290e+00	3.732006e-01	-3.494354e-03	2.570775e+00	1.000460e+00	1.000170e+00	3.153076e-01	6.553135e-03	
2.283886e+00	-3.572586e-06	1.000403e+00	3.727151e-01	-3.325247e-03	2.571013e+00	1.000631e+00	1.000228e+00	3.148515e-01	8.988409e-03	
2.034529e+00	-3.574094e-06	1.000559e+00	3.721597e-01	-3.143560e-03	2.571350e+00	1.000853e+00	1.000294e+00	3.143216e-01	1.215318e-02	
1.832911e+00	-3.575959e-06	1.000797e+00	3.718427e-01	-2.951967e-03	2.571922e+00	1.001136e+00	1.000339e+00	3.139710e-01	1.617848e-02	
1.669894e+00	-3.578265e-06	1.001108e+00	3.715704e-01	-2.754252e-03	2.572677e+00	1.001487e+00	1.000379e+00	3.136360e-01	2.118422e-02	
1.538086e+00	-3.581117e-06	1.001550e+00	3.718648e-01	-2.553499e-03	2.573826e+00	1.001915e+00	1.000365e+00	3.137469e-01	2.728703e-02	
1.431513e+00	-3.584644e-06	1.002053e+00	3.719381e-01	-2.353017e-03	2.575096e+00	1.002426e+00	1.000372e+00	3.136488e-01	3.456598e-02	
1.345344e+00	-3.589007e-06	1.002584e+00	3.714315e-01	-2.154167e-03	2.576368e+00	1.003025e+00	1.000440e+00	3.130443e-01	4.309530e-02	
1.275671e+00	-3.594403e-06	1.003039e+00	3.693119e-01	-1.956810e-03	2.577273e+00	1.003713e+00	1.000671e+00	3.110797e-01	5.289153e-02	
1.219338e+00	-3.601076e-06	1.003266e+00	3.640299e-01	-1.761581e-03	2.577269e+00	1.004490e+00	1.001219e+00	3.064765e-01	6.396127e-02	
1.173790e+00	-3.609330e-06	1.003260e+00	3.554032e-01	-1.566393e-03	2.576343e+00	1.005357e+00	1.002090e+00	2.990850e-01	7.631079e-02	
1.136961e+00	-3.619538e-06	1.002941e+00	3.423931e-01	-1.375073e-03	2.574222e+00	1.006311e+00	1.003360e+00	2.880453e-01	8.990307e-02	
1.107184e+00	-3.632163e-06	1.002447e+00	3.260117e-01	-1.189273e-03	2.571403e+00	1.007356e+00	1.004897e+00	2.741889e-01	1.047952e-01	
1.083108e+00	-3.647777e-06	1.001884e+00	3.069493e-01	-1.013605e-03	2.568256e+00	1.008494e+00	1.006598e+00	2.580831e-01	1.210055e-01	
1.063641e+00	-3.667089e-06	1.001367e+00	2.860677e-01	-8.511134e-04	2.565195e+00	1.009733e+00	1.008354e+00	2.404400e-01	1.386597e-01	
1.047901e+00	-3.690973e-06	1.001016e+00	2.642971e-01	-7.021635e-04	2.562614e+00	1.011089e+00	1.010063e+00	2.220315e-01	1.579796e-01	
1.035174e+00	-3.720512e-06	1.000841e+00	2.413617e-01	-5.666637e-04	2.560544e+00	1.012576e+00	1.011725e+00	2.026325e-01	1.791620e-01	
1.024884e+00	-3.757046e-06	1.000927e+00	2.166295e-01	-4.418660e-04	2.559172e+00	1.014292e+00	1.013353e+00	1.817071e-01	2.036010e-01	
1.016564e+00	-3.802231e-06	1.001248e+00	1.883383e-01	-3.235820e-04	2.558387e+00	1.016269e+00	1.015002e+00	1.577974e-01	2.317730e-01	
1.009837e+00	-3.858114e-06	1.001014e+00	1.529918e-01	-2.105513e-04	2.556096e+00	1.017762e+00	1.016731e+00	1.281036e-01	2.530390e-01	
1.004398e+00	-3.927230e-06	1.006892e+00	1.023040e-01	-5.491489e-05	2.569262e+00	1.025626e+00	1.018606e+00	8.508300e-02	3.650729e-01	