TITLE = "Visualization of the solution"
VARIABLES = "x","y","Density","Momentum_x","Momentum_y","Energy","Nu_Tilde","Pressure","Temperature","Mach","Pressure_Coefficient","Laminar_Viscosity","Skin_Friction_Coefficient_x","Skin_Friction_Coefficient_y","Heat_Flux","Y_Plus","Eddy_Viscosity"
ZONE NODES= 14576, ELEMENTS= 14336, DATAPACKING=POINT, ZONETYPE=FEQUADRILATERAL
5.010000e+02	5.352203e-08	1.000001e+00	3.746877e-01	-1.310597e-03	2.570194e+00	8.906817e-08	9.999990e-01	9.999983e-01	3.166708e-01	-1.378667e-05	2.958036e-08	0.000000e+00	0.000000e+00	0.000000e+00	0.000000e+00	6.311296e-09	
4.052710e+02	5.352203e-08	1.000001e+00	3.746987e-01	-1.307791e-03	2.570198e+00	8.924971e-08	9.999991e-01	9.999978e-01	3.166801e-01	-1.229495e-05	2.958035e-08	0.000000e+00	0.000000e+00	0.000000e+00	0.000000e+00	6.359689e-09	
3.278693e+02	5.352203e-08	1.000002e+00	3.747120e-01	-1.305577e-03	2.570204e+00	8.943809e-08	9.999993e-01	9.999973e-01	3.166911e-01	-9.374725e-06	2.958034e-08	0.000000e+00	0.000000e+00	0.000000e+00	0.000000e+00	6.410165e-09	
2.652863e+02	5.352203e-08	1.000003e+00	3.747234e-01	-1.304667e-03	2.570209e+00	8.970960e-08	9.999997e-01	9.999968e-01	3.167006e-01	-4.258777e-06	2.958033e-08	0.000000e+00	0.000000e+00	0.000000e+00	0.000000e+00	6.483719e-09	
2.146849e+02	5.352203e-08	1.000003e+00	3.747320e-01	-1.304498e-03	2.570212e+00	9.022033e-08	9.999998e-01	9.999965e-01	3.167078e-01	-3.323730e-06	2.958032e-08	0.000000e+00	0.000000e+00	0.000000e+00	0.000000e+00	6.623959e-09	
1.737712e+02	5.352203e-08	1.000003e+00	3.747389e-01	-1.304001e-03	2.570215e+00	9.137465e-08	9.999998e-01	9.999964e-01	3.167136e-01	-3.291074e-06	2.958032e-08	0.000000e+00	0.000000e+00	0.000000e+00	0.000000e+00	6.948547e-09	
1.406904e+02	5.352203e-08	1.000003e+00	3.747429e-01	-1.303034e-03	2.570216e+00	9.508745e-08	9.999998e-01	9.999968e-01	3.167170e-01	-3.349898e-06	2.958033e-08	0.000000e+00	0.000000e+00	0.000000e+00	0.000000e+00	8.065181e-09	
1.139430e+02	5.352203e-08	1.000002e+00	3.747411e-01	-1.301813e-03	2.570216e+00	1.097640e-07	9.999998e-01	9.999978e-01	3.167157e-01	-2.987501e-06	2.958035e-08	0.000000e+00	0.000000e+00	0.000000e+00	0.000000e+00	1.365875e-08	
9.231638e+01	5.352203e-08	1.000000e+00	3.747308e-01	-1.300355e-03	2.570212e+00	1.663797e-07	9.999998e-01	9.999995e-01	3.167072e-01	-2.421875e-06	2.958039e-08	0.000000e+00	0.000000e+00	0.000000e+00	0.000000e+00	5.479820e-08	
7.483022e+01	5.352203e-08	9.999979e-01	3.747102e-01	-1.298523e-03	2.570205e+00	3.530437e-07	9.999999e-01	1.000002e+00	3.166901e-01	-1.367480e-06	2.958044e-08	0.000000e+00	0.000000e+00	0.000000e+00	0.000000e+00	2.897395e-07	
6.069179e+01	5.352203e-08	9.999944e-01	3.746734e-01	-1.296171e-03	2.570191e+00	8.288038e-07	1.000000e+00	1.000006e+00	3.166596e-01	6.230490e-07	2.958053e-08	0.000000e+00	0.000000e+00	0.000000e+00	0.000000e+00	8.114901e-07	
4.926019e+01	5.352203e-08	9.999889e-01	3.746058e-01	-1.293184e-03	2.570167e+00	1.750869e-06	1.000000e+00	1.000011e+00	3.166033e-01	4.294419e-06	2.958066e-08	0.000000e+00	0.000000e+00	0.000000e+00	0.000000e+00	1.739057e-06	
4.001717e+01	5.352203e-08	9.999802e-01	3.744872e-01	-1.289454e-03	2.570124e+00	3.278893e-06	1.000001e+00	1.000021e+00	3.165044e-01	1.055813e-05	2.958087e-08	0.000000e+00	0.000000e+00	0.000000e+00	0.000000e+00	3.261732e-06	
3.254374e+01	5.352203e-08	9.999674e-01	3.742970e-01	-1.284873e-03	2.570056e+00	5.336754e-06	1.000001e+00	1.000034e+00	3.163455e-01	2.055501e-05	2.958117e-08	0.000000e+00	0.000000e+00	0.000000e+00	0.000000e+00	5.313230e-06	
2.650110e+01	5.352203e-08	9.999490e-01	3.740126e-01	-1.279296e-03	2.569953e+00	7.726469e-06	1.000003e+00	1.000053e+00	3.161079e-01	3.572045e-05	2.958162e-08	0.000000e+00	0.000000e+00	0.000000e+00	0.000000e+00	7.697527e-06	
2.161534e+01	5.352203e-08	9.999235e-01	3.736035e-01	-1.272509e-03	2.569806e+00	1.035387e-05	1.000004e+00	1.000081e+00	3.157658e-01	5.809760e-05	2.958223e-08	0.000000e+00	0.000000e+00	0.000000e+00	0.000000e+00	1.032049e-05	
1.766495e+01	5.352203e-08	9.998884e-01	3.730269e-01	-1.264226e-03	2.569599e+00	1.319418e-05	1.000006e+00	1.000118e+00	3.152837e-01	9.068710e-05	2.958308e-08	0.000000e+00	0.000000e+00	0.000000e+00	0.000000e+00	1.315725e-05	
1.447088e+01	5.352203e-08	9.998407e-01	3.722275e-01	-1.254108e-03	2.569313e+00	1.621030e-05	1.000010e+00	1.000169e+00	3.146150e-01	1.378801e-04	2.958424e-08	0.000000e+00	0.000000e+00	0.000000e+00	0.000000e+00	1.617047e-05	
1.188831e+01	5.352203e-08	9.997770e-01	3.711381e-01	-1.241768e-03	2.568924e+00	1.934663e-05	1.000014e+00	1.000238e+00	3.137034e-01	2.060613e-04	2.958580e-08	0.000000e+00	0.000000e+00	0.000000e+00	0.000000e+00	1.930430e-05	
9.800175e+00	5.352203e-08	9.996938e-01	3.696825e-01	-1.226790e-03	2.568408e+00	2.253359e-05	1.000021e+00	1.000328e+00	3.124850e-01	3.044892e-04	2.958785e-08	0.000000e+00	0.000000e+00	0.000000e+00	0.000000e+00	2.248890e-05	
8.111817e+00	5.352203e-08	9.995879e-01	3.677799e-01	-1.208733e-03	2.567738e+00	2.567831e-05	1.000031e+00	1.000444e+00	3.108916e-01	4.465920e-04	2.959049e-08	0.000000e+00	0.000000e+00	0.000000e+00	0.000000e+00	2.563117e-05	
6.746697e+00	5.352203e-08	9.994573e-01	3.653508e-01	-1.187151e-03	2.566892e+00	2.865231e-05	1.000046e+00	1.000589e+00	3.088562e-01	6.516230e-04	2.959379e-08	0.000000e+00	0.000000e+00	0.000000e+00	0.000000e+00	2.860241e-05	
5.642931e+00	5.352203e-08	9.993011e-01	3.623183e-01	-1.161614e-03	2.565850e+00	3.132186e-05	1.000066e+00	1.000766e+00	3.063133e-01	9.463081e-04	2.959782e-08	0.000000e+00	0.000000e+00	0.000000e+00	0.000000e+00	3.126858e-05	
4.750481e+00	5.352203e-08	9.991197e-01	3.586089e-01	-1.131750e-03	2.564597e+00	3.357009e-05	1.000096e+00	1.000977e+00	3.032002e-01	1.367559e-03	2.960262e-08	0.000000e+00	0.000000e+00	0.000000e+00	0.000000e+00	3.351223e-05	
4.028892e+00	5.352203e-08	9.989171e-01	3.541836e-01	-1.097316e-03	2.563137e+00	3.544979e-05	1.000138e+00	1.001222e+00	2.994828e-01	1.968660e-03	2.960820e-08	0.000000e+00	0.000000e+00	0.000000e+00	0.000000e+00	3.538764e-05	
3.445452e+00	5.352203e-08	9.987030e-01	3.490880e-01	-1.058263e-03	2.561507e+00	3.673166e-05	1.000198e+00	1.001497e+00	2.951968e-01	2.826011e-03	2.961445e-08	0.000000e+00	0.000000e+00	0.000000e+00	0.000000e+00	3.666486e-05	
2.973712e+00	5.352203e-08	9.984920e-01	3.434446e-01	-1.014777e-03	2.559776e+00	3.739464e-05	1.000284e+00	1.001794e+00	2.904429e-01	4.041299e-03	2.962120e-08	0.000000e+00	0.000000e+00	0.000000e+00	0.000000e+00	3.732336e-05	
2.592287e+00	5.352203e-08	9.982995e-01	3.373924e-01	-9.673039e-04	2.558021e+00	3.746425e-05	1.000403e+00	1.002107e+00	2.853351e-01	5.735925e-03	2.962830e-08	0.000000e+00	0.000000e+00	0.000000e+00	0.000000e+00	3.738945e-05	
2.283886e+00	5.352203e-08	9.981390e-01	3.310364e-01	-9.164662e-04	2.556307e+00	3.696919e-05	1.000565e+00	1.002430e+00	2.799596e-01	8.043669e-03	2.963565e-08	0.000000e+00	0.000000e+00	0.000000e+00	0.000000e+00	3.689296e-05	
2.034529e+00	5.352203e-08	9.980215e-01	3.244248e-01	-8.629855e-04	2.554679e+00	3.596419e-05	1.000779e+00	1.002763e+00	2.743547e-01	1.110119e-02	2.964321e-08	0.000000e+00	0.000000e+00	0.000000e+00	0.000000e+00	3.588870e-05	
1.832911e+00	5.352203e-08	9.979553e-01	3.175483e-01	-8.076865e-04	2.553161e+00	3.457002e-05	1.001056e+00	1.003107e+00	2.685113e-01	1.503895e-02	2.965102e-08	0.000000e+00	0.000000e+00	0.000000e+00	0.000000e+00	3.449704e-05	
1.669894e+00	5.352203e-08	9.979471e-01	3.103576e-01	-7.515475e-04	2.551765e+00	3.295322e-05	1.001402e+00	1.003462e+00	2.623866e-01	1.997426e-02	2.965909e-08	0.000000e+00	0.000000e+00	0.000000e+00	0.000000e+00	3.288442e-05	
1.538086e+00	5.352203e-08	9.980031e-01	3.027936e-01	-6.956981e-04	2.550498e+00	3.125476e-05	1.001826e+00	1.003830e+00	2.559303e-01	2.600975e-02	2.966745e-08	0.000000e+00	0.000000e+00	0.000000e+00	0.000000e+00	3.119176e-05	
1.431513e+00	5.352203e-08	9.981296e-01	2.948192e-01	-6.413319e-04	2.549372e+00	2.956592e-05	1.002332e+00	1.004211e+00	2.491113e-01	3.322858e-02	2.967608e-08	0.000000e+00	0.000000e+00	0.000000e+00	0.000000e+00	2.951031e-05	
1.345344e+00	5.352203e-08	9.983326e-01	2.864314e-01	-5.895449e-04	2.548405e+00	2.793312e-05	1.002926e+00	1.004601e+00	2.419276e-01	4.168544e-02	2.968495e-08	0.000000e+00	0.000000e+00	0.000000e+00	0.000000e+00	2.788637e-05	
1.275671e+00	5.352203e-08	9.986163e-01	2.776490e-01	-5.411925e-04	2.547617e+00	2.637443e-05	1.003608e+00	1.004998e+00	2.343967e-01	5.139703e-02	2.969396e-08	0.000000e+00	0.000000e+00	0.000000e+00	0.000000e+00	2.633783e-05	
1.219338e+00	5.352203e-08	9.989826e-01	2.684918e-01	-4.968889e-04	2.547022e+00	2.488931e-05	1.004376e+00	1.005399e+00	2.265378e-01	6.234587e-02	2.970306e-08	0.000000e+00	0.000000e+00	0.000000e+00	0.000000e+00	2.486391e-05	
1.173790e+00	5.352203e-08	9.994311e-01	2.589652e-01	-4.571569e-04	2.546622e+00	2.346240e-05	1.005229e+00	1.005801e+00	2.183580e-01	7.448675e-02	2.971216e-08	0.000000e+00	0.000000e+00	0.000000e+00	0.000000e+00	2.344900e-05	
1.136961e+00	5.352203e-08	9.999595e-01	2.490521e-01	-4.224986e-04	2.546414e+00	2.206669e-05	1.006160e+00	1.006200e+00	2.098467e-01	8.775059e-02	2.972123e-08	0.000000e+00	0.000000e+00	0.000000e+00	0.000000e+00	2.206575e-05	
1.107184e+00	5.352203e-08	1.000563e+00	2.387132e-01	-3.932702e-04	2.546381e+00	2.066623e-05	1.007162e+00	1.006595e+00	2.009745e-01	1.020333e-01	2.973019e-08	0.000000e+00	0.000000e+00	0.000000e+00	0.000000e+00	2.067783e-05	
1.083108e+00	5.352203e-08	1.001234e+00	2.278890e-01	-3.694943e-04	2.546499e+00	1.921746e-05	1.008226e+00	1.006983e+00	1.916960e-01	1.171827e-01	2.973896e-08	0.000000e+00	0.000000e+00	0.000000e+00	0.000000e+00	1.924115e-05	
1.063641e+00	5.352203e-08	1.001964e+00	2.165014e-01	-3.508257e-04	2.546728e+00	1.767464e-05	1.009335e+00	1.007357e+00	1.819506e-01	1.329885e-01	2.974744e-08	0.000000e+00	0.000000e+00	0.000000e+00	0.000000e+00	1.770932e-05	
1.047901e+00	5.352203e-08	1.002742e+00	2.044461e-01	-3.366104e-04	2.547025e+00	1.599213e-05	1.010473e+00	1.007710e+00	1.716557e-01	1.492035e-01	2.975546e-08	0.000000e+00	0.000000e+00	0.000000e+00	0.000000e+00	1.603594e-05	
1.035174e+00	5.352203e-08	1.003558e+00	1.915636e-01	-3.258068e-04	2.547334e+00	1.412771e-05	1.011620e+00	1.008034e+00	1.606829e-01	1.655447e-01	2.976280e-08	0.000000e+00	0.000000e+00	0.000000e+00	0.000000e+00	1.417792e-05	
1.024884e+00	5.352203e-08	1.004413e+00	1.775633e-01	-3.168534e-04	2.547602e+00	1.203781e-05	1.012763e+00	1.008313e+00	1.487921e-01	1.818176e-01	2.976912e-08	0.000000e+00	0.000000e+00	0.000000e+00	0.000000e+00	1.209086e-05	
1.016564e+00	5.352203e-08	1.005372e+00	1.618491e-01	-3.060688e-04	2.547873e+00	9.682433e-06	1.013938e+00	1.008521e+00	1.354809e-01	1.985676e-01	2.977383e-08	0.000000e+00	0.000000e+00	0.000000e+00	0.000000e+00	9.734341e-06	
1.009837e+00	5.352203e-08	1.006103e+00	1.429899e-01	-2.871090e-04	2.546989e+00	6.978174e-06	1.014731e+00	1.008576e+00	1.196039e-01	2.098641e-01	2.977507e-08	0.000000e+00	0.000000e+00	0.000000e+00	0.000000e+00	7.020569e-06	
1.004398e+00	5.352203e-08	1.009380e+00	1.134962e-01	-2.400088e-04	2.550266e+00	3.900289e-06	1.017554e+00	1.008098e+00	9.464818e-02	2.500773e-01	2.976424e-08	0.000000e+00	0.000000e+00	0.000000e+00	0.000000e+00	3.936265e-06	
1.000000e+00	5.352203e-08	1.016391e+00	0.000000e+00	0.000000e+00	2.542568e+00	0.000000e+00	1.017027e+00	1.000626e+00	0.000000e+00	2.425732e-01	2.959465e-08	3.115397e-15	1.251590e-05	3.471218e+02	1.404243e+02	0.000000e+00	
9.957821e-01	-5.967887e-04	1.015987e+00	0.000000e+00	0.000000e+00	2.537788e+00	0.000000e+00	1.015115e+00	9.991421e-01	0.000000e+00	2.153337e-01	2.956088e-08	2.674079e-03	3.772359e-04	4.383139e+03	1.880455e+00	0.000000e+00	
9.909241e-01	-1.280290e-03	1.015395e+00	0.000000e+00	0.000000e+00	2.536376e+00	0.000000e+00	1.014550e+00	9.991684e-01	0.000000e+00	2.072882e-01	2.956148e-08	1.996895e-03	2.799820e-04	3.137183e+03	1.603891e+00	0.000000e+00	
9.853369e-01	-2.061293e-03	1.013637e+00	0.000000e+00	0.000000e+00	2.532638e+00	0.000000e+00	1.013055e+00	9.994262e-01	0.000000e+00	1.859883e-01	2.956734e-08	1.810914e-03	2.521301e-04	2.629978e+03	1.508869e+00	0.000000e+00	
9.789211e-01	-2.951446e-03	1.012298e+00	0.000000e+00	0.000000e+00	2.529701e+00	0.000000e+00	1.011880e+00	9.995870e-01	0.000000e+00	1.692501e-01	2.957100e-08	1.806600e-03	2.495219e-04	2.432311e+03	1.491372e+00	0.000000e+00	
9.715675e-01	-3.963073e-03	1.010979e+00	0.000000e+00	0.000000e+00	2.526592e+00	0.000000e+00	1.010637e+00	9.996617e-01	0.000000e+00	1.515349e-01	2.957270e-08	1.864525e-03	2.551829e-04	2.355831e+03	1.501316e+00	0.000000e+00	
9.631568e-01	-5.108981e-03	1.009692e+00	0.000000e+00	0.000000e+00	2.523465e+00	0.000000e+00	1.009386e+00	9.996968e-01	0.000000e+00	1.337166e-01	2.957350e-08	1.944390e-03	2.633693e-04	2.325683e+03	1.520940e+00	0.000000e+00	
9.535602e-01	-6.402178e-03	1.008395e+00	0.000000e+00	0.000000e+00	2.520274e+00	0.000000e+00	1.008110e+00	9.997166e-01	0.000000e+00	1.155317e-01	2.957395e-08	2.032232e-03	2.720555e-04	2.314899e+03	1.544047e+00	0.000000e+00	
9.426407e-01	-7.855481e-03	1.007089e+00	0.000000e+00	0.000000e+00	2.517046e+00	0.000000e+00	1.006818e+00	9.997312e-01	0.000000e+00	9.713470e-02	2.957428e-08	2.122715e-03	2.804284e-04	2.313138e+03	1.568328e+00	0.000000e+00	
9.302548e-01	-9.481022e-03	1.005768e+00	0.000000e+00	0.000000e+00	2.513773e+00	0.000000e+00	1.005509e+00	9.997432e-01	0.000000e+00	7.848615e-02	2.957456e-08	2.213496e-03	2.880952e-04	2.316253e+03	1.592803e+00	0.000000e+00	
9.162555e-01	-1.128962e-02	1.004434e+00	0.000000e+00	0.000000e+00	2.510466e+00	0.000000e+00	1.004186e+00	9.997535e-01	0.000000e+00	5.963783e-02	2.957479e-08	2.303472e-03	2.948380e-04	2.322167e+03	1.617033e+00	0.000000e+00	
9.004963e-01	-1.329003e-02	1.003089e+00	0.000000e+00	0.000000e+00	2.507128e+00	0.000000e+00	1.002851e+00	9.997625e-01	0.000000e+00	4.061645e-02	2.957500e-08	2.392162e-03	3.005264e-04	2.329851e+03	1.640833e+00	0.000000e+00	
8.828360e-01	-1.548810e-02	1.001736e+00	0.000000e+00	0.000000e+00	2.503766e+00	0.000000e+00	1.001506e+00	9.997706e-01	0.000000e+00	2.145799e-02	2.957518e-08	2.479401e-03	3.050749e-04	2.338787e+03	1.664142e+00	0.000000e+00	
8.631457e-01	-1.788578e-02	1.000375e+00	0.000000e+00	0.000000e+00	2.500382e+00	0.000000e+00	1.000153e+00	9.997780e-01	0.000000e+00	2.179328e-03	2.957535e-08	2.565220e-03	3.084230e-04	2.348742e+03	1.686965e+00	0.000000e+00	
8.413160e-01	-2.048016e-02	9.990067e-01	0.000000e+00	0.000000e+00	2.496979e+00	0.000000e+00	9.987917e-01	9.997847e-01	0.000000e+00	-1.721388e-02	2.957550e-08	2.649792e-03	3.105239e-04	2.359615e+03	1.709355e+00	0.000000e+00	
8.172658e-01	-2.326236e-02	9.976283e-01	0.000000e+00	0.000000e+00	2.493549e+00	0.000000e+00	9.974198e-01	9.997909e-01	0.000000e+00	-3.675822e-02	2.957564e-08	2.733468e-03	3.113399e-04	2.371399e+03	1.731415e+00	0.000000e+00	
7.909518e-01	-2.621660e-02	9.962366e-01	0.000000e+00	0.000000e+00	2.490085e+00	0.000000e+00	9.960341e-01	9.997967e-01	0.000000e+00	-5.649866e-02	2.957577e-08	2.816748e-03	3.108272e-04	2.384124e+03	1.753287e+00	0.000000e+00	
7.623778e-01	-2.931924e-02	9.948258e-01	0.000000e+00	0.000000e+00	2.486572e+00	0.000000e+00	9.946289e-01	9.998021e-01	0.000000e+00	-7.651704e-02	2.957590e-08	2.900302e-03	3.089230e-04	2.397881e+03	1.775156e+00	0.000000e+00	
7.316032e-01	-3.253806e-02	9.933894e-01	0.000000e+00	0.000000e+00	2.482994e+00	0.000000e+00	9.931978e-01	9.998071e-01	0.000000e+00	-9.690549e-02	2.957601e-08	2.984947e-03	3.055240e-04	2.412789e+03	1.797241e+00	0.000000e+00	
6.987499e-01	-3.583186e-02	9.919198e-01	0.000000e+00	0.000000e+00	2.479333e+00	0.000000e+00	9.917333e-01	9.998119e-01	0.000000e+00	-1.177692e-01	2.957612e-08	3.071630e-03	3.004651e-04	2.429003e+03	1.819787e+00	0.000000e+00	
6.640066e-01	-3.915032e-02	9.904107e-01	0.000000e+00	0.000000e+00	2.475573e+00	0.000000e+00	9.902290e-01	9.998165e-01	0.000000e+00	-1.391986e-01	2.957623e-08	3.161350e-03	2.934924e-04	2.446667e+03	1.843042e+00	0.000000e+00	
6.276283e-01	-4.243463e-02	9.888558e-01	0.000000e+00	0.000000e+00	2.471697e+00	0.000000e+00	9.886789e-01	9.998211e-01	0.000000e+00	-1.612825e-01	2.957633e-08	3.255101e-03	2.842427e-04	2.465924e+03	1.867242e+00	0.000000e+00	
5.899328e-01	-4.561861e-02	9.872536e-01	0.000000e+00	0.000000e+00	2.467704e+00	0.000000e+00	9.870814e-01	9.998256e-01	0.000000e+00	-1.840395e-01	2.957643e-08	3.353716e-03	2.722226e-04	2.486818e+03	1.892569e+00	0.000000e+00	
5.512916e-01	-4.863091e-02	9.856043e-01	0.000000e+00	0.000000e+00	2.463592e+00	0.000000e+00	9.854369e-01	9.998301e-01	0.000000e+00	-2.074675e-01	2.957653e-08	3.457846e-03	2.568111e-04	2.509371e+03	1.919154e+00	0.000000e+00	
5.121166e-01	-5.139795e-02	9.839156e-01	0.000000e+00	0.000000e+00	2.459383e+00	0.000000e+00	9.837531e-01	9.998348e-01	0.000000e+00	-2.314558e-01	2.957664e-08	3.567817e-03	2.372641e-04	2.533473e+03	1.947045e+00	0.000000e+00	
4.728433e-01	-5.384781e-02	9.821973e-01	0.000000e+00	0.000000e+00	2.455099e+00	0.000000e+00	9.820398e-01	9.998396e-01	0.000000e+00	-2.558638e-01	2.957675e-08	3.683713e-03	2.127504e-04	2.559016e+03	1.976234e+00	0.000000e+00	
4.339121e-01	-5.591460e-02	9.804679e-01	0.000000e+00	0.000000e+00	2.450790e+00	0.000000e+00	9.803158e-01	9.998449e-01	0.000000e+00	-2.804232e-01	2.957687e-08	3.805162e-03	1.823765e-04	2.585740e+03	2.006619e+00	0.000000e+00	
3.957488e-01	-5.754285e-02	9.787481e-01	0.000000e+00	0.000000e+00	2.446505e+00	0.000000e+00	9.786022e-01	9.998509e-01	0.000000e+00	-3.048366e-01	2.957701e-08	3.931593e-03	1.452478e-04	2.613465e+03	2.038076e+00	0.000000e+00	
3.587470e-01	-5.869148e-02	9.770662e-01	0.000000e+00	0.000000e+00	2.442317e+00	0.000000e+00	9.769267e-01	9.998573e-01	0.000000e+00	-3.287051e-01	2.957715e-08	4.062320e-03	1.005106e-04	2.642131e+03	2.070490e+00	0.000000e+00	
3.232528e-01	-5.933656e-02	9.754491e-01	0.000000e+00	0.000000e+00	2.438292e+00	0.000000e+00	9.753168e-01	9.998643e-01	0.000000e+00	-3.516401e-01	2.957731e-08	4.196728e-03	4.737991e-05	2.671839e+03	2.103797e+00	0.000000e+00	
2.895540e-01	-5.947265e-02	9.739290e-01	0.000000e+00	0.000000e+00	2.434511e+00	0.000000e+00	9.738044e-01	9.998721e-01	0.000000e+00	-3.731869e-01	2.957749e-08	4.334430e-03	-1.485990e-05	2.702916e+03	2.138029e+00	0.000000e+00	
2.578733e-01	-5.911242e-02	9.725316e-01	0.000000e+00	0.000000e+00	2.431039e+00	0.000000e+00	9.724158e-01	9.998809e-01	0.000000e+00	-3.929685e-01	2.957769e-08	4.474933e-03	-8.687893e-05	2.735607e+03	2.173215e+00	0.000000e+00	
2.283666e-01	-5.828472e-02	9.712839e-01	0.000000e+00	0.000000e+00	2.427945e+00	0.000000e+00	9.711780e-01	9.998910e-01	0.000000e+00	-4.106022e-01	2.957792e-08	4.617666e-03	-1.693252e-04	2.770113e+03	2.209396e+00	0.000000e+00	
2.011248e-01	-5.703151e-02	9.702071e-01	0.000000e+00	0.000000e+00	2.425281e+00	0.000000e+00	9.701125e-01	9.999025e-01	0.000000e+00	-4.257815e-01	2.957818e-08	4.761710e-03	-2.628475e-04	2.806429e+03	2.246563e+00	0.000000e+00	
1.761797e-01	-5.540400e-02	9.693203e-01	0.000000e+00	0.000000e+00	2.423094e+00	0.000000e+00	9.692376e-01	9.999148e-01	0.000000e+00	-4.382449e-01	2.957846e-08	4.905798e-03	-3.681146e-04	2.844412e+03	2.284664e+00	0.000000e+00	
1.535115e-01	-5.345876e-02	9.686387e-01	0.000000e+00	0.000000e+00	2.421421e+00	0.000000e+00	9.685684e-01	9.999275e-01	0.000000e+00	-4.477787e-01	2.957875e-08	5.048544e-03	-4.858584e-04	2.883851e+03	2.323668e+00	0.000000e+00	
1.330575e-01	-5.125403e-02	9.681775e-01	0.000000e+00	0.000000e+00	2.420299e+00	0.000000e+00	9.681196e-01	9.999402e-01	0.000000e+00	-4.541723e-01	2.957904e-08	5.188613e-03	-6.169366e-04	2.924572e+03	2.363608e+00	0.000000e+00	
1.147221e-01	-4.884662e-02	9.679490e-01	0.000000e+00	0.000000e+00	2.419759e+00	0.000000e+00	9.679034e-01	9.999530e-01	0.000000e+00	-4.572523e-01	2.957933e-08	5.324535e-03	-7.623703e-04	2.966347e+03	2.404553e+00	0.000000e+00	
9.838552e-02	-4.628967e-02	9.679703e-01	0.000000e+00	0.000000e+00	2.419842e+00	0.000000e+00	9.679369e-01	9.999655e-01	0.000000e+00	-4.567754e-01	2.957961e-08	5.454646e-03	-9.233770e-04	3.008980e+03	2.446608e+00	0.000000e+00	
8.391231e-02	-4.363107e-02	9.682637e-01	0.000000e+00	0.000000e+00	2.420605e+00	0.000000e+00	9.682421e-01	9.999777e-01	0.000000e+00	-4.524279e-01	2.957989e-08	5.576757e-03	-1.101339e-03	3.052269e+03	2.489863e+00	0.000000e+00	
7.115831e-02	-4.091264e-02	9.688573e-01	0.000000e+00	0.000000e+00	2.422117e+00	0.000000e+00	9.688468e-01	9.999892e-01	0.000000e+00	-4.438131e-01	2.958015e-08	5.687849e-03	-1.297720e-03	3.095975e+03	2.534346e+00	0.000000e+00	
5.997667e-02	-3.816999e-02	9.697897e-01	0.000000e+00	0.000000e+00	2.424473e+00	0.000000e+00	9.697893e-01	9.999996e-01	0.000000e+00	-4.303859e-01	2.958039e-08	5.783826e-03	-1.513918e-03	3.139896e+03	2.579998e+00	0.000000e+00	
5.022241e-02	-3.543267e-02	9.711134e-01	0.000000e+00	0.000000e+00	2.427803e+00	0.000000e+00	9.711213e-01	1.000008e+00	0.000000e+00	-4.114107e-01	2.958058e-08	5.859191e-03	-1.751015e-03	3.183939e+03	2.626624e+00	0.000000e+00	
4.175588e-02	-3.272472e-02	9.728943e-01	0.000000e+00	0.000000e+00	2.432269e+00	0.000000e+00	9.729076e-01	1.000014e+00	0.000000e+00	-3.859624e-01	2.958071e-08	5.906813e-03	-2.009403e-03	3.228197e+03	2.673850e+00	0.000000e+00	
3.444509e-02	-3.006547e-02	9.752123e-01	0.000000e+00	0.000000e+00	2.438069e+00	0.000000e+00	9.752275e-01	1.000016e+00	0.000000e+00	-3.529132e-01	2.958075e-08	5.918138e-03	-2.288400e-03	3.273097e+03	2.721163e+00	0.000000e+00	
2.816724e-02	-2.747033e-02	9.781609e-01	0.000000e+00	0.000000e+00	2.445436e+00	0.000000e+00	9.781744e-01	1.000014e+00	0.000000e+00	-3.109301e-01	2.958071e-08	5.884011e-03	-2.585974e-03	3.319508e+03	2.768044e+00	0.000000e+00	
2.280944e-02	-2.495170e-02	9.818468e-01	0.000000e+00	0.000000e+00	2.454640e+00	0.000000e+00	9.818558e-01	1.000009e+00	0.000000e+00	-2.584846e-01	2.958061e-08	5.794610e-03	-2.898028e-03	3.368752e+03	2.813876e+00	0.000000e+00	
1.826886e-02	-2.251990e-02	9.863815e-01	0.000000e+00	0.000000e+00	2.465949e+00	0.000000e+00	9.863795e-01	9.999979e-01	0.000000e+00	-1.940396e-01	2.958035e-08	5.637268e-03	-3.215975e-03	3.422513e+03	2.857206e+00	0.000000e+00	
1.445220e-02	-2.018403e-02	9.918675e-01	0.000000e+00	0.000000e+00	2.479596e+00	0.000000e+00	9.918385e-01	9.999707e-01	0.000000e+00	-1.162704e-01	2.957973e-08	5.397515e-03	-3.524879e-03	3.482975e+03	2.895511e+00	0.000000e+00	
1.127516e-02	-1.795263e-02	9.983689e-01	0.000000e+00	0.000000e+00	2.495708e+00	0.000000e+00	9.982832e-01	9.999142e-01	0.000000e+00	-2.445729e-02	2.957845e-08	5.063176e-03	-3.802876e-03	3.553166e+03	2.925416e+00	0.000000e+00	
8.660978e-03	-1.583433e-02	1.005859e+00	0.000000e+00	0.000000e+00	2.514185e+00	0.000000e+00	1.005674e+00	9.998164e-01	0.000000e+00	8.083496e-02	2.957622e-08	4.630780e-03	-4.023203e-03	3.637016e+03	2.943316e+00	0.000000e+00	
6.539262e-03	-1.383810e-02	1.014184e+00	0.000000e+00	0.000000e+00	2.534636e+00	0.000000e+00	1.013855e+00	9.996752e-01	0.000000e+00	1.973736e-01	2.957301e-08	4.110912e-03	-4.159464e-03	3.739243e+03	2.946402e+00	0.000000e+00	
4.844550e-03	-1.197282e-02	1.023031e+00	0.000000e+00	0.000000e+00	2.556324e+00	0.000000e+00	1.022530e+00	9.995104e-01	0.000000e+00	3.209624e-01	2.956926e-08	3.529390e-03	-4.191679e-03	3.863275e+03	2.933104e+00	0.000000e+00	
3.515320e-03	-1.024671e-02	1.031949e+00	0.000000e+00	0.000000e+00	2.578238e+00	0.000000e+00	1.031295e+00	9.993668e-01	0.000000e+00	4.458363e-01	2.956599e-08	2.921769e-03	-4.109419e-03	4.005625e+03	2.902555e+00	0.000000e+00	
2.493434e-03	-8.666020e-03	1.040468e+00	0.000000e+00	0.000000e+00	2.599238e+00	0.000000e+00	1.039695e+00	9.992575e-01	0.000000e+00	5.655036e-01	2.956351e-08	2.330026e-03	-3.919994e-03	4.171256e+03	2.856727e+00	0.000000e+00	
1.724623e-03	-7.234077e-03	1.048173e+00	0.000000e+00	0.000000e+00	2.618270e+00	0.000000e+00	1.047308e+00	9.991751e-01	0.000000e+00	6.739583e-01	2.956163e-08	1.785290e-03	-3.633787e-03	4.354694e+03	2.795057e+00	0.000000e+00	
1.159193e-03	-5.950300e-03	1.054779e+00	0.000000e+00	0.000000e+00	2.634596e+00	0.000000e+00	1.053838e+00	9.991079e-01	0.000000e+00	7.669891e-01	2.956010e-08	1.309307e-03	-3.266953e-03	4.539981e+03	2.715663e+00	0.000000e+00	
7.531893e-04	-4.810177e-03	1.060164e+00	0.000000e+00	0.000000e+00	2.647894e+00	0.000000e+00	1.059158e+00	9.990507e-01	0.000000e+00	8.427670e-01	2.955880e-08	9.151170e-04	-2.843929e-03	4.707317e+03	2.617241e+00	0.000000e+00	
4.691284e-04	-3.805771e-03	1.064347e+00	0.000000e+00	0.000000e+00	2.658226e+00	0.000000e+00	1.063290e+00	9.990068e-01	0.000000e+00	9.016429e-01	2.955780e-08	6.062326e-04	-2.393974e-03	4.838354e+03	2.499437e+00	0.000000e+00	
2.762360e-04	-2.926719e-03	1.067448e+00	0.000000e+00	0.000000e+00	2.665914e+00	0.000000e+00	1.066366e+00	9.989863e-01	0.000000e+00	9.454555e-01	2.955733e-08	3.773914e-04	-1.945180e-03	4.918560e+03	2.362142e+00	0.000000e+00	
1.500786e-04	-2.161300e-03	1.069632e+00	0.000000e+00	0.000000e+00	2.671410e+00	0.000000e+00	1.068564e+00	9.990018e-01	0.000000e+00	9.767750e-01	2.955769e-08	2.173724e-04	-1.519813e-03	4.937208e+03	2.204225e+00	0.000000e+00	
7.180327e-05	-1.497377e-03	1.071072e+00	0.000000e+00	0.000000e+00	2.675171e+00	0.000000e+00	1.070068e+00	9.990631e-01	0.000000e+00	9.982048e-01	2.955908e-08	1.123966e-04	-1.132692e-03	4.886543e+03	2.022135e+00	0.000000e+00	
2.721276e-05	-9.231024e-04	1.071941e+00	0.000000e+00	0.000000e+00	2.677625e+00	0.000000e+00	1.071050e+00	9.991684e-01	0.000000e+00	1.012186e+00	2.956148e-08	4.881335e-05	-7.915649e-04	4.760313e+03	1.807794e+00	0.000000e+00	
5.818606e-06	-4.273592e-04	1.072343e+00	0.000000e+00	0.000000e+00	2.678938e+00	0.000000e+00	1.071575e+00	9.992842e-01	0.000000e+00	1.019670e+00	2.956411e-08	1.474660e-05	-5.002293e-04	4.556320e+03	1.546379e+00	0.000000e+00	
0.000000e+00	0.000000e+00	1.072612e+00	0.000000e+00	0.000000e+00	2.679801e+00	0.000000e+00	1.071920e+00	9.993550e-01	0.000000e+00	1.024586e+00	2.956573e-08	-6.566411e-17	-2.507129e-04	4.287963e+03	1.179140e+00	0.000000e+00	
5.818606e-06	4.273592e-04	1.072807e+00	0.000000e+00	0.000000e+00	2.680160e+00	0.000000e+00	1.072064e+00	9.993077e-01	0.000000e+00	1.026636e+00	2.956465e-08	-9.298935e-07	-3.154355e-05	4.590818e+03	3.883941e-01	0.000000e+00	
2.721276e-05	9.231024e-04	1.072882e+00	0.000000e+00	0.000000e+00	2.680017e+00	0.000000e+00	1.072007e+00	9.991841e-01	0.000000e+00	1.025822e+00	2.956184e-08	1.459384e-05	2.366560e-04	4.826074e+03	9.888942e-01	0.000000e+00	
7.180327e-05	1.497377e-03	1.072631e+00	0.000000e+00	0.000000e+00	2.679052e+00	0.000000e+00	1.071621e+00	9.990587e-01	0.000000e+00	1.020323e+00	2.955898e-08	5.550865e-05	5.593961e-04	4.974954e+03	1.422103e+00	0.000000e+00	
1.500786e-04	2.161300e-03	1.071877e+00	0.000000e+00	0.000000e+00	2.676948e+00	0.000000e+00	1.070779e+00	9.989762e-01	0.000000e+00	1.008332e+00	2.955710e-08	1.337372e-04	9.350565e-04	5.043541e+03	1.730787e+00	0.000000e+00	
2.762360e-04	2.926719e-03	1.070455e+00	0.000000e+00	0.000000e+00	2.673315e+00	0.000000e+00	1.069326e+00	9.989457e-01	0.000000e+00	9.876304e-01	2.955641e-08	2.632224e-04	1.356721e-03	5.038889e+03	1.975585e+00	0.000000e+00	
4.691284e-04	3.805771e-03	1.068178e+00	0.000000e+00	0.000000e+00	2.667661e+00	0.000000e+00	1.067064e+00	9.989572e-01	0.000000e+00	9.554082e-01	2.955667e-08	4.585102e-04	1.810628e-03	4.969171e+03	2.177679e+00	0.000000e+00	
7.531893e-04	4.810177e-03	1.064863e+00	0.000000e+00	0.000000e+00	2.659485e+00	0.000000e+00	1.063794e+00	9.989958e-01	0.000000e+00	9.088185e-01	2.955755e-08	7.319430e-04	2.274675e-03	4.844167e+03	2.345972e+00	0.000000e+00	
1.159193e-03	5.950300e-03	1.060359e+00	0.000000e+00	0.000000e+00	2.648375e+00	0.000000e+00	1.059350e+00	9.990484e-01	0.000000e+00	8.455110e-01	2.955875e-08	1.090014e-03	2.719777e-03	4.676990e+03	2.484487e+00	0.000000e+00	
1.724623e-03	7.234077e-03	1.054600e+00	0.000000e+00	0.000000e+00	2.634148e+00	0.000000e+00	1.053659e+00	9.991079e-01	0.000000e+00	7.644394e-01	2.956010e-08	1.530058e-03	3.114285e-03	4.484950e+03	2.595614e+00	0.000000e+00	
2.493434e-03	8.666020e-03	1.047658e+00	0.000000e+00	0.000000e+00	2.616986e+00	0.000000e+00	1.046794e+00	9.991759e-01	0.000000e+00	6.666371e-01	2.956165e-08	2.039290e-03	3.430866e-03	4.288520e+03	2.681949e+00	0.000000e+00	
3.515320e-03	1.024671e-02	1.039764e+00	0.000000e+00	0.000000e+00	2.597494e+00	0.000000e+00	1.038997e+00	9.992632e-01	0.000000e+00	5.555628e-01	2.956364e-08	2.596834e-03	3.652402e-03	4.107321e+03	2.746961e+00	0.000000e+00	
4.844550e-03	1.197282e-02	1.031291e+00	0.000000e+00	0.000000e+00	2.576638e+00	0.000000e+00	1.030655e+00	9.993833e-01	0.000000e+00	4.367191e-01	2.956637e-08	3.176048e-03	3.772033e-03	3.953170e+03	2.793894e+00	0.000000e+00	
6.539262e-03	1.383810e-02	1.022682e+00	0.000000e+00	0.000000e+00	2.555527e+00	0.000000e+00	1.022211e+00	9.995395e-01	0.000000e+00	3.164192e-01	2.956992e-08	3.742841e-03	3.787046e-03	3.823292e+03	2.823455e+00	0.000000e+00	
8.660978e-03	1.583433e-02	1.014387e+00	0.000000e+00	0.000000e+00	2.535186e+00	0.000000e+00	1.014075e+00	9.996919e-01	0.000000e+00	2.005078e-01	2.957339e-08	4.262545e-03	3.703282e-03	3.716406e+03	2.836085e+00	0.000000e+00	
1.127516e-02	1.795263e-02	1.006755e+00	0.000000e+00	0.000000e+00	2.516408e+00	0.000000e+00	1.006563e+00	9.998093e-01	0.000000e+00	9.350112e-02	2.957606e-08	4.708533e-03	3.536509e-03	3.628355e+03	2.833156e+00	0.000000e+00	
1.445220e-02	2.018403e-02	9.999826e-01	0.000000e+00	0.000000e+00	2.499672e+00	0.000000e+00	9.998687e-01	9.998861e-01	0.000000e+00	-1.870329e-03	2.957781e-08	5.066258e-03	3.308550e-03	3.552919e+03	2.816888e+00	0.000000e+00	
1.826886e-02	2.251990e-02	9.941358e-01	0.000000e+00	0.000000e+00	2.485169e+00	0.000000e+00	9.940676e-01	9.999314e-01	0.000000e+00	-8.451374e-02	2.957884e-08	5.334543e-03	3.043275e-03	3.485619e+03	2.790476e+00	0.000000e+00	
2.280944e-02	2.495170e-02	9.891854e-01	0.000000e+00	0.000000e+00	2.472858e+00	0.000000e+00	9.891432e-01	9.999573e-01	0.000000e+00	-1.546679e-01	2.957943e-08	5.521532e-03	2.761455e-03	3.423791e+03	2.757128e+00	0.000000e+00	
2.816724e-02	2.747033e-02	9.850564e-01	0.000000e+00	0.000000e+00	2.462574e+00	0.000000e+00	9.850297e-01	9.999729e-01	0.000000e+00	-2.132687e-01	2.957978e-08	5.639164e-03	2.478366e-03	3.365948e+03	2.719460e+00	0.000000e+00	