TITLE = "Visualization of the solution"
VARIABLES = "x","y","Density","Momentum_x","Momentum_y","Energy","Nu_Tilde","Pressure","Temperature","Mach","Pressure_Coefficient","Laminar_Viscosity","Skin_Friction_Coefficient_x","Skin_Friction_Coefficient_y","Heat_Flux","Y_Plus","Eddy_Viscosity"
ZONE NODES= 128, ELEMENTS= 128, DATAPACKING=POINT, ZONETYPE=FELINESEG
1.000000e+00	5.352203e-08	1.016391e+00	0.000000e+00	0.000000e+00	2.542568e+00	0.000000e+00	1.017027e+00	1.000626e+00	0.000000e+00	2.425732e-01	2.959465e-08	3.115397e-15	1.251590e-05	3.471218e+02	1.404243e+02	0.000000e+00	
9.957821e-01	-5.967887e-04	1.015987e+00	0.000000e+00	0.000000e+00	2.537788e+00	0.000000e+00	1.015115e+00	9.991421e-01	0.000000e+00	2.153337e-01	2.956088e-08	2.674079e-03	3.772359e-04	4.383139e+03	1.880455e+00	0.000000e+00	
9.909241e-01	-1.280290e-03	1.015395e+00	0.000000e+00	0.000000e+00	2.536376e+00	0.000000e+00	1.014550e+00	9.991684e-01	0.000000e+00	2.072882e-01	2.956148e-08	1.996895e-03	2.799820e-04	3.137183e+03	1.603891e+00	0.000000e+00	
9.853369e-01	-2.061293e-03	1.013637e+00	0.000000e+00	0.000000e+00	2.532638e+00	0.000000e+00	1.013055e+00	9.994262e-01	0.000000e+00	1.859883e-01	2.956734e-08	1.810914e-03	2.521301e-04	2.629978e+03	1.508869e+00	0.000000e+00	
9.789211e-01	-2.951446e-03	1.012298e+00	0.000000e+00	0.000000e+00	2.529701e+00	0.000000e+00	1.011880e+00	9.995870e-01	0.000000e+00	1.692501e-01	2.957100e-08	1.806600e-03	2.495219e-04	2.432311e+03	1.491372e+00	0.000000e+00	
9.715675e-01	-3.963073e-03	1.010979e+00	0.000000e+00	0.000000e+00	2.526592e+00	0.000000e+00	1.010637e+00	9.996617e-01	0.000000e+00	1.515349e-01	2.957270e-08	1.864525e-03	2.551829e-04	2.355831e+03	1.501316e+00	0.000000e+00	
9.631568e-01	-5.108981e-03	1.009692e+00	0.000000e+00	0.000000e+00	2.523465e+00	0.000000e+00	1.009386e+00	9.996968e-01	0.000000e+00	1.337166e-01	2.957350e-08	1.944390e-03	2.633693e-04	2.325683e+03	1.520940e+00	0.000000e+00	
9.535602e-01	-6.402178e-03	1.008395e+00	0.000000e+00	0.000000e+00	2.520274e+00	0.000000e+00	1.008110e+00	9.997166e-01	0.000000e+00	1.155317e-01	2.957395e-08	2.032232e-03	2.720555e-04	2.314899e+03	1.544047e+00	0.000000e+00	
9.426407e-01	-7.855481e-03	1.007089e+00	0.000000e+00	0.000000e+00	2.517046e+00	0.000000e+00	1.006818e+00	9.997312e-01	0.000000e+00	9.713470e-02	2.957428e-08	2.122715e-03	2.804284e-04	2.313138e+03	1.568328e+00	0.000000e+00	
9.302548e-01	-9.481022e-03	1.005768e+00	0.000000e+00	0.000000e+00	2.513773e+00	0.000000e+00	1.005509e+00	9.997432e-01	0.000000e+00	7.848615e-02	2.957456e-08	2.213496e-03	2.880952e-04	2.316253e+03	1.592803e+00	0.000000e+00	
9.162555e-01	-1.128962e-02	1.004434e+00	0.000000e+00	0.000000e+00	2.510466e+00	0.000000e+00	1.004186e+00	9.997535e-01	0.000000e+00	5.963783e-02	2.957479e-08	2.303472e-03	2.948380e-04	2.322167e+03	1.617033e+00	0.000000e+00	
9.004963e-01	-1.329003e-02	1.003089e+00	0.000000e+00	0.000000e+00	2.507128e+00	0.000000e+00	1.002851e+00	9.997625e-01	0.000000e+00	4.061645e-02	2.957500e-08	2.392162e-03	3.005264e-04	2.329851e+03	1.640833e+00	0.000000e+00	
8.828360e-01	-1.548810e-02	1.001736e+00	0.000000e+00	0.000000e+00	2.503766e+00	0.000000e+00	1.001506e+00	9.997706e-01	0.000000e+00	2.145799e-02	2.957518e-08	2.479401e-03	3.050749e-04	2.338787e+03	1.664142e+00	0.000000e+00	
8.631457e-01	-1.788578e-02	1.000375e+00	0.000000e+00	0.000000e+00	2.500382e+00	0.000000e+00	1.000153e+00	9.997780e-01	0.000000e+00	2.179328e-03	2.957535e-08	2.565220e-03	3.084230e-04	2.348742e+03	1.686965e+00	0.000000e+00	
8.413160e-01	-2.048016e-02	9.990067e-01	0.000000e+00	0.000000e+00	2.496979e+00	0.000000e+00	9.987917e-01	9.997847e-01	0.000000e+00	-1.721388e-02	2.957550e-08	2.649792e-03	3.105239e-04	2.359615e+03	1.709355e+00	0.000000e+00	
8.172658e-01	-2.326236e-02	9.976283e-01	0.000000e+00	0.000000e+00	2.493549e+00	0.000000e+00	9.974198e-01	9.997909e-01	0.000000e+00	-3.675822e-02	2.957564e-08	2.733468e-03	3.113399e-04	2.371399e+03	1.731415e+00	0.000000e+00	
7.909518e-01	-2.621660e-02	9.962366e-01	0.000000e+00	0.000000e+00	2.490085e+00	0.000000e+00	9.960341e-01	9.997967e-01	0.000000e+00	-5.649866e-02	2.957577e-08	2.816748e-03	3.108272e-04	2.384124e+03	1.753287e+00	0.000000e+00	
7.623778e-01	-2.931924e-02	9.948258e-01	0.000000e+00	0.000000e+00	2.486572e+00	0.000000e+00	9.946289e-01	9.998021e-01	0.000000e+00	-7.651704e-02	2.957590e-08	2.900302e-03	3.089230e-04	2.397881e+03	1.775156e+00	0.000000e+00	
7.316032e-01	-3.253806e-02	9.933894e-01	0.000000e+00	0.000000e+00	2.482994e+00	0.000000e+00	9.931978e-01	9.998071e-01	0.000000e+00	-9.690549e-02	2.957601e-08	2.984947e-03	3.055240e-04	2.412789e+03	1.797241e+00	0.000000e+00	
6.987499e-01	-3.583186e-02	9.919198e-01	0.000000e+00	0.000000e+00	2.479333e+00	0.000000e+00	9.917333e-01	9.998119e-01	0.000000e+00	-1.177692e-01	2.957612e-08	3.071630e-03	3.004651e-04	2.429003e+03	1.819787e+00	0.000000e+00	
6.640066e-01	-3.915032e-02	9.904107e-01	0.000000e+00	0.000000e+00	2.475573e+00	0.000000e+00	9.902290e-01	9.998165e-01	0.000000e+00	-1.391986e-01	2.957623e-08	3.161350e-03	2.934924e-04	2.446667e+03	1.843042e+00	0.000000e+00	
6.276283e-01	-4.243463e-02	9.888558e-01	0.000000e+00	0.000000e+00	2.471697e+00	0.000000e+00	9.886789e-01	9.998211e-01	0.000000e+00	-1.612825e-01	2.957633e-08	3.255101e-03	2.842427e-04	2.465924e+03	1.867242e+00	0.000000e+00	
5.899328e-01	-4.561861e-02	9.872536e-01	0.000000e+00	0.000000e+00	2.467704e+00	0.000000e+00	9.870814e-01	9.998256e-01	0.000000e+00	-1.840395e-01	2.957643e-08	3.353716e-03	2.722226e-04	2.486818e+03	1.892569e+00	0.000000e+00	
5.512916e-01	-4.863091e-02	9.856043e-01	0.000000e+00	0.000000e+00	2.463592e+00	0.000000e+00	9.854369e-01	9.998301e-01	0.000000e+00	-2.074675e-01	2.957653e-08	3.457846e-03	2.568111e-04	2.509371e+03	1.919154e+00	0.000000e+00	
5.121166e-01	-5.139795e-02	9.839156e-01	0.000000e+00	0.000000e+00	2.459383e+00	0.000000e+00	9.837531e-01	9.998348e-01	0.000000e+00	-2.314558e-01	2.957664e-08	3.567817e-03	2.372641e-04	2.533473e+03	1.947045e+00	0.000000e+00	
4.728433e-01	-5.384781e-02	9.821973e-01	0.000000e+00	0.000000e+00	2.455099e+00	0.000000e+00	9.820398e-01	9.998396e-01	0.000000e+00	-2.558638e-01	2.957675e-08	3.683713e-03	2.127504e-04	2.559016e+03	1.976234e+00	0.000000e+00	
4.339121e-01	-5.591460e-02	9.804679e-01	0.000000e+00	0.000000e+00	2.450790e+00	0.000000e+00	9.803158e-01	9.998449e-01	0.000000e+00	-2.804232e-01	2.957687e-08	3.805162e-03	1.823765e-04	2.585740e+03	2.006619e+00	0.000000e+00	
3.957488e-01	-5.754285e-02	9.787481e-01	0.000000e+00	0.000000e+00	2.446505e+00	0.000000e+00	9.786022e-01	9.998509e-01	0.000000e+00	-3.048366e-01	2.957701e-08	3.931593e-03	1.452478e-04	2.613465e+03	2.038076e+00	0.000000e+00	
3.587470e-01	-5.869148e-02	9.770662e-01	0.000000e+00	0.000000e+00	2.442317e+00	0.000000e+00	9.769267e-01	9.998573e-01	0.000000e+00	-3.287051e-01	2.957715e-08	4.062320e-03	1.005106e-04	2.642131e+03	2.070490e+00	0.000000e+00	
3.232528e-01	-5.933656e-02	9.754491e-01	0.000000e+00	0.000000e+00	2.438292e+00	0.000000e+00	9.753168e-01	9.998643e-01	0.000000e+00	-3.516401e-01	2.957731e-08	4.196728e-03	4.737991e-05	2.671839e+03	2.103797e+00	0.000000e+00	
2.895540e-01	-5.947265e-02	9.739290e-01	0.000000e+00	0.000000e+00	2.434511e+00	0.000000e+00	9.738044e-01	9.998721e-01	0.000000e+00	-3.731869e-01	2.957749e-08	4.334430e-03	-1.485990e-05	2.702916e+03	2.138029e+00	0.000000e+00	
2.578733e-01	-5.911242e-02	9.725316e-01	0.000000e+00	0.000000e+00	2.431039e+00	0.000000e+00	9.724158e-01	9.998809e-01	0.000000e+00	-3.929685e-01	2.957769e-08	4.474933e-03	-8.687893e-05	2.735607e+03	2.173215e+00	0.000000e+00	
2.283666e-01	-5.828472e-02	9.712839e-01	0.000000e+00	0.000000e+00	2.427945e+00	0.000000e+00	9.711780e-01	9.998910e-01	0.000000e+00	-4.106022e-01	2.957792e-08	4.617666e-03	-1.693252e-04	2.770113e+03	2.209396e+00	0.000000e+00	
2.011248e-01	-5.703151e-02	9.702071e-01	0.000000e+00	0.000000e+00	2.425281e+00	0.000000e+00	9.701125e-01	9.999025e-01	0.000000e+00	-4.257815e-01	2.957818e-08	4.761710e-03	-2.628475e-04	2.806429e+03	2.246563e+00	0.000000e+00	
1.761797e-01	-5.540400e-02	9.693203e-01	0.000000e+00	0.000000e+00	2.423094e+00	0.000000e+00	9.692376e-01	9.999148e-01	0.000000e+00	-4.382449e-01	2.957846e-08	4.905798e-03	-3.681146e-04	2.844412e+03	2.284664e+00	0.000000e+00	
1.535115e-01	-5.345876e-02	9.686387e-01	0.000000e+00	0.000000e+00	2.421421e+00	0.000000e+00	9.685684e-01	9.999275e-01	0.000000e+00	-4.477787e-01	2.957875e-08	5.048544e-03	-4.858584e-04	2.883851e+03	2.323668e+00	0.000000e+00	
1.330575e-01	-5.125403e-02	9.681775e-01	0.000000e+00	0.000000e+00	2.420299e+00	0.000000e+00	9.681196e-01	9.999402e-01	0.000000e+00	-4.541723e-01	2.957904e-08	5.188613e-03	-6.169366e-04	2.924572e+03	2.363608e+00	0.000000e+00	
1.147221e-01	-4.884662e-02	9.679490e-01	0.000000e+00	0.000000e+00	2.419759e+00	0.000000e+00	9.679034e-01	9.999530e-01	0.000000e+00	-4.572523e-01	2.957933e-08	5.324535e-03	-7.623703e-04	2.966347e+03	2.404553e+00	0.000000e+00	
9.838552e-02	-4.628967e-02	9.679703e-01	0.000000e+00	0.000000e+00	2.419842e+00	0.000000e+00	9.679369e-01	9.999655e-01	0.000000e+00	-4.567754e-01	2.957961e-08	5.454646e-03	-9.233770e-04	3.008980e+03	2.446608e+00	0.000000e+00	
8.391231e-02	-4.363107e-02	9.682637e-01	0.000000e+00	0.000000e+00	2.420605e+00	0.000000e+00	9.682421e-01	9.999777e-01	0.000000e+00	-4.524279e-01	2.957989e-08	5.576757e-03	-1.101339e-03	3.052269e+03	2.489863e+00	0.000000e+00	
7.115831e-02	-4.091264e-02	9.688573e-01	0.000000e+00	0.000000e+00	2.422117e+00	0.000000e+00	9.688468e-01	9.999892e-01	0.000000e+00	-4.438131e-01	2.958015e-08	5.687849e-03	-1.297720e-03	3.095975e+03	2.534346e+00	0.000000e+00	
5.997667e-02	-3.816999e-02	9.697897e-01	0.000000e+00	0.000000e+00	2.424473e+00	0.000000e+00	9.697893e-01	9.999996e-01	0.000000e+00	-4.303859e-01	2.958039e-08	5.783826e-03	-1.513918e-03	3.139896e+03	2.579998e+00	0.000000e+00	
5.022241e-02	-3.543267e-02	9.711134e-01	0.000000e+00	0.000000e+00	2.427803e+00	0.000000e+00	9.711213e-01	1.000008e+00	0.000000e+00	-4.114107e-01	2.958058e-08	5.859191e-03	-1.751015e-03	3.183939e+03	2.626624e+00	0.000000e+00	
4.175588e-02	-3.272472e-02	9.728943e-01	0.000000e+00	0.000000e+00	2.432269e+00	0.000000e+00	9.729076e-01	1.000014e+00	0.000000e+00	-3.859624e-01	2.958071e-08	5.906813e-03	-2.009403e-03	3.228197e+03	2.673850e+00	0.000000e+00	
3.444509e-02	-3.006547e-02	9.752123e-01	0.000000e+00	0.000000e+00	2.438069e+00	0.000000e+00	9.752275e-01	1.000016e+00	0.000000e+00	-3.529132e-01	2.958075e-08	5.918138e-03	-2.288400e-03	3.273097e+03	2.721163e+00	0.000000e+00	
2.816724e-02	-2.747033e-02	9.781609e-01	0.000000e+00	0.000000e+00	2.445436e+00	0.000000e+00	9.781744e-01	1.000014e+00	0.000000e+00	-3.109301e-01	2.958071e-08	5.884011e-03	-2.585974e-03	3.319508e+03	2.768044e+00	0.000000e+00	
2.280944e-02	-2.495170e-02	9.818468e-01	0.000000e+00	0.000000e+00	2.454640e+00	0.000000e+00	9.818558e-01	1.000009e+00	0.000000e+00	-2.584846e-01	2.958061e-08	5.794610e-03	-2.898028e-03	3.368752e+03	2.813876e+00	0.000000e+00	
1.826886e-02	-2.251990e-02	9.863815e-01	0.000000e+00	0.000000e+00	2.465949e+00	0.000000e+00	9.863795e-01	9.999979e-01	0.000000e+00	-1.940396e-01	2.958035e-08	5.637268e-03	-3.215975e-03	3.422513e+03	2.857206e+00	0.000000e+00	
1.445220e-02	-2.018403e-02	9.918675e-01	0.000000e+00	0.000000e+00	2.479596e+00	0.000000e+00	9.918385e-01	9.999707e-01	0.000000e+00	-1.162704e-01	2.957973e-08	5.397515e-03	-3.524879e-03	3.482975e+03	2.895511e+00	0.000000e+00	
1.127516e-02	-1.795263e-02	9.983689e-01	0.000000e+00	0.000000e+00	2.495708e+00	0.000000e+00	9.982832e-01	9.999142e-01	0.000000e+00	-2.445729e-02	2.957845e-08	5.063176e-03	-3.802876e-03	3.553166e+03	2.925416e+00	0.000000e+00	
8.660978e-03	-1.583433e-02	1.005859e+00	0.000000e+00	0.000000e+00	2.514185e+00	0.000000e+00	1.005674e+00	9.998164e-01	0.000000e+00	8.083496e-02	2.957622e-08	4.630780e-03	-4.023203e-03	3.637016e+03	2.943316e+00	0.000000e+00	
6.539262e-03	-1.383810e-02	1.014184e+00	0.000000e+00	0.000000e+00	2.534636e+00	0.000000e+00	1.013855e+00	9.996752e-01	0.000000e+00	1.973736e-01	2.957301e-08	4.110912e-03	-4.159464e-03	3.739243e+03	2.946402e+00	0.000000e+00	
4.844550e-03	-1.197282e-02	1.023031e+00	0.000000e+00	0.000000e+00	2.556324e+00	0.000000e+00	1.022530e+00	9.995104e-01	0.000000e+00	3.209624e-01	2.956926e-08	3.529390e-03	-4.191679e-03	3.863275e+03	2.933104e+00	0.000000e+00	
3.515320e-03	-1.024671e-02	1.031949e+00	0.000000e+00	0.000000e+00	2.578238e+00	0.000000e+00	1.031295e+00	9.993668e-01	0.000000e+00	4.458363e-01	2.956599e-08	2.921769e-03	-4.109419e-03	4.005625e+03	2.902555e+00	0.000000e+00	
2.493434e-03	-8.666020e-03	1.040468e+00	0.000000e+00	0.000000e+00	2.599238e+00	0.000000e+00	1.039695e+00	9.992575e-01	0.000000e+00	5.655036e-01	2.956351e-08	2.330026e-03	-3.919994e-03	4.171256e+03	2.856727e+00	0.000000e+00	
1.724623e-03	-7.234077e-03	1.048173e+00	0.000000e+00	0.000000e+00	2.618270e+00	0.000000e+00	1.047308e+00	9.991751e-01	0.000000e+00	6.739583e-01	2.956163e-08	1.785290e-03	-3.633787e-03	4.354694e+03	2.795057e+00	0.000000e+00	
1.159193e-03	-5.950300e-03	1.054779e+00	0.000000e+00	0.000000e+00	2.634596e+00	0.000000e+00	1.053838e+00	9.991079e-01	0.000000e+00	7.669891e-01	2.956010e-08	1.309307e-03	-3.266953e-03	4.539981e+03	2.715663e+00	0.000000e+00	
7.531893e-04	-4.810177e-03	1.060164e+00	0.000000e+00	0.000000e+00	2.647894e+00	0.000000e+00	1.059158e+00	9.990507e-01	0.000000e+00	8.427670e-01	2.955880e-08	9.151170e-04	-2.843929e-03	4.707317e+03	2.617241e+00	0.000000e+00	
4.691284e-04	-3.805771e-03	1.064347e+00	0.000000e+00	0.000000e+00	2.658226e+00	0.000000e+00	1.063290e+00	9.990068e-01	0.000000e+00	9.016429e-01	2.955780e-08	6.062326e-04	-2.393974e-03	4.838354e+03	2.499437e+00	0.000000e+00	
2.762360e-04	-2.926719e-03	1.067448e+00	0.000000e+00	0.000000e+00	2.665914e+00	0.000000e+00	1.066366e+00	9.989863e-01	0.000000e+00	9.454555e-01	2.955733e-08	3.773914e-04	-1.945180e-03	4.918560e+03	2.362142e+00	0.000000e+00	
1.500786e-04	-2.161300e-03	1.069632e+00	0.000000e+00	0.000000e+00	2.671410e+00	0.000000e+00	1.068564e+00	9.990018e-01	0.000000e+00	9.767750e-01	2.955769e-08	2.173724e-04	-1.519813e-03	4.937208e+03	2.204225e+00	0.000000e+00	
7.180327e-05	-1.497377e-03	1.071072e+00	0.000000e+00	0.000000e+00	2.675171e+00	0.000000e+00	1.070068e+00	9.990631e-01	0.000000e+00	9.982048e-01	2.955908e-08	1.123966e-04	-1.132692e-03	4.886543e+03	2.022135e+00	0.000000e+00	
2.721276e-05	-9.231024e-04	1.071941e+00	0.000000e+00	0.000000e+00	2.677625e+00	0.000000e+00	1.071050e+00	9.991684e-01	0.000000e+00	1.012186e+00	2.956148e-08	4.881335e-05	-7.915649e-04	4.760313e+03	1.807794e+00	0.000000e+00	
5.818606e-06	-4.273592e-04	1.072343e+00	0.000000e+00	0.000000e+00	2.678938e+00	0.000000e+00	1.071575e+00	9.992842e-01	0.000000e+00	1.019670e+00	2.956411e-08	1.474660e-05	-5.002293e-04	4.556320e+03	1.546379e+00	0.000000e+00	
0.000000e+00	0.000000e+00	1.072612e+00	0.000000e+00	0.000000e+00	2.679801e+00	0.000000e+00	1.071920e+00	9.993550e-01	0.000000e+00	1.024586e+00	2.956573e-08	-6.566411e-17	-2.507129e-04	4.287963e+03	1.179140e+00	0.000000e+00	
5.818606e-06	4.273592e-04	1.072807e+00	0.000000e+00	0.000000e+00	2.680160e+00	0.000000e+00	1.072064e+00	9.993077e-01	0.000000e+00	1.026636e+00	2.956465e-08	-9.298935e-07	-3.154355e-05	4.590818e+03	3.883941e-01	0.000000e+00	
2.721276e-05	9.231024e-04	1.072882e+00	0.000000e+00	0.000000e+00	2.680017e+00	0.000000e+00	1.072007e+00	9.991841e-01	0.000000e+00	1.025822e+00	2.956184e-08	1.459384e-05	2.366560e-04	4.826074e+03	9.888942e-01	0.000000e+00	
7.180327e-05	1.497377e-03	1.072631e+00	0.000000e+00	0.000000e+00	2.679052e+00	0.000000e+00	1.071621e+00	9.990587e-01	0.000000e+00	1.020323e+00	2.955898e-08	5.550865e-05	5.593961e-04	4.974954e+03	1.422103e+00	0.000000e+00	
1.500786e-04	2.161300e-03	1.071877e+00	0.000000e+00	0.000000e+00	2.676948e+00	0.000000e+00	1.070779e+00	9.989762e-01	0.000000e+00	1.008332e+00	2.955710e-08	1.337372e-04	9.350565e-04	5.043541e+03	1.730787e+00	0.000000e+00	
2.762360e-04	2.926719e-03	1.070455e+00	0.000000e+00	0.000000e+00	2.673315e+00	0.000000e+00	1.069326e+00	9.989457e-01	0.000000e+00	9.876304e-01	2.955641e-08	2.632224e-04	1.356721e-03	5.038889e+03	1.975585e+00	0.000000e+00	
4.691284e-04	3.805771e-03	1.068178e+00	0.000000e+00	0.000000e+00	2.667661e+00	0.000000e+00	1.067064e+00	9.989572e-01	0.000000e+00	9.554082e-01	2.955667e-08	4.585102e-04	1.810628e-03	4.969171e+03	2.177679e+00	0.000000e+00	
7.531893e-04	4.810177e-03	1.064863e+00	0.000000e+00	0.000000e+00	2.659485e+00	0.000000e+00	1.063794e+00	9.989958e-01	0.000000e+00	9.088185e-01	2.955755e-08	7.319430e-04	2.274675e-03	4.844167e+03	2.345972e+00	0.000000e+00	
1.159193e-03	5.950300e-03	1.060359e+00	0.000000e+00	0.000000e+00	2.648375e+00	0.000000e+00	1.059350e+00	9.990484e-01	0.000000e+00	8.455110e-01	2.955875e-08	1.090014e-03	2.719777e-03	4.676990e+03	2.484487e+00	0.000000e+00	
1.724623e-03	7.234077e-03	1.054600e+00	0.000000e+00	0.000000e+00	2.634148e+00	0.000000e+00	1.053659e+00	9.991079e-01	0.000000e+00	7.644394e-01	2.956010e-08	1.530058e-03	3.114285e-03	4.484950e+03	2.595614e+00	0.000000e+00	
2.493434e-03	8.666020e-03	1.047658e+00	0.000000e+00	0.000000e+00	2.616986e+00	0.000000e+00	1.046794e+00	9.991759e-01	0.000000e+00	6.666371e-01	2.956165e-08	2.039290e-03	3.430866e-03	4.288520e+03	2.681949e+00	0.000000e+00	
3.515320e-03	1.024671e-02	1.039764e+00	0.000000e+00	0.000000e+00	2.597494e+00	0.000000e+00	1.038997e+00	9.992632e-01	0.000000e+00	5.555628e-01	2.956364e-08	2.596834e-03	3.652402e-03	4.107321e+03	2.746961e+00	0.000000e+00	
4.844550e-03	1.197282e-02	1.031291e+00	0.000000e+00	0.000000e+00	2.576638e+00	0.000000e+00	1.030655e+00	9.993833e-01	0.000000e+00	4.367191e-01	2.956637e-08	3.176048e-03	3.772033e-03	3.953170e+03	2.793894e+00	0.000000e+00	
6.539262e-03	1.383810e-02	1.022682e+00	0.000000e+00	0.000000e+00	2.555527e+00	0.000000e+00	1.022211e+00	9.995395e-01	0.000000e+00	3.164192e-01	2.956992e-08	3.742841e-03	3.787046e-03	3.823292e+03	2.823455e+00	0.000000e+00	
8.660978e-03	1.583433e-02	1.014387e+00	0.000000e+00	0.000000e+00	2.535186e+00	0.000000e+00	1.014075e+00	9.996919e-01	0.000000e+00	2.005078e-01	2.957339e-08	4.262545e-03	3.703282e-03	3.716406e+03	2.836085e+00	0.000000e+00	
1.127516e-02	1.795263e-02	1.006755e+00	0.000000e+00	0.000000e+00	2.516408e+00	0.000000e+00	1.006563e+00	9.998093e-01	0.000000e+00	9.350112e-02	2.957606e-08	4.708533e-03	3.536509e-03	3.628355e+03	2.833156e+00	0.000000e+00	
1.445220e-02	2.018403e-02	9.999826e-01	0.000000e+00	0.000000e+00	2.499672e+00	0.000000e+00	9.998687e-01	9.998861e-01	0.000000e+00	-1.870329e-03	2.957781e-08	5.066258e-03	3.308550e-03	3.552919e+03	2.816888e+00	0.000000e+00	
1.826886e-02	2.251990e-02	9.941358e-01	0.000000e+00	0.000000e+00	2.485169e+00	0.000000e+00	9.940676e-01	9.999314e-01	0.000000e+00	-8.451374e-02	2.957884e-08	5.334543e-03	3.043275e-03	3.485619e+03	2.790476e+00	0.000000e+00	
2.280944e-02	2.495170e-02	9.891854e-01	0.000000e+00	0.000000e+00	2.472858e+00	0.000000e+00	9.891432e-01	9.999573e-01	0.000000e+00	-1.546679e-01	2.957943e-08	5.521532e-03	2.761455e-03	3.423791e+03	2.757128e+00	0.000000e+00	
2.816724e-02	2.747033e-02	9.850564e-01	0.000000e+00	0.000000e+00	2.462574e+00	0.000000e+00	9.850297e-01	9.999729e-01	0.000000e+00	-2.132687e-01	2.957978e-08	5.639164e-03	2.478366e-03	3.365948e+03	2.719460e+00	0.000000e+00	
3.444509e-02	3.006547e-02	9.816568e-01	0.000000e+00	0.000000e+00	2.454099e+00	0.000000e+00	9.816397e-01	9.999826e-01	0.000000e+00	-2.615639e-01	2.958000e-08	5.699189e-03	2.203738e-03	3.311055e+03	2.679229e+00	0.000000e+00	
4.175588e-02	3.272472e-02	9.788928e-01	0.000000e+00	0.000000e+00	2.447199e+00	0.000000e+00	9.788797e-01	9.999866e-01	0.000000e+00	-3.008833e-01	2.958009e-08	5.711526e-03	1.942970e-03	3.258258e+03	2.637426e+00	0.000000e+00	
5.022241e-02	3.543267e-02	9.766789e-01	0.000000e+00	0.000000e+00	2.441663e+00	0.000000e+00	9.766650e-01	9.999857e-01	0.000000e+00	-3.324337e-01	2.958007e-08	5.685593e-03	1.699135e-03	3.206983e+03	2.594868e+00	0.000000e+00	
5.997667e-02	3.816999e-02	9.749404e-01	0.000000e+00	0.000000e+00	2.437305e+00	0.000000e+00	9.749220e-01	9.999811e-01	0.000000e+00	-3.572644e-01	2.957997e-08	5.630022e-03	1.473660e-03	3.156931e+03	2.552250e+00	0.000000e+00	
7.115831e-02	4.091264e-02	9.736139e-01	0.000000e+00	0.000000e+00	2.433971e+00	0.000000e+00	9.735886e-01	9.999740e-01	0.000000e+00	-3.762607e-01	2.957981e-08	5.551985e-03	1.266722e-03	3.107988e+03	2.510063e+00	0.000000e+00	
8.391231e-02	4.363107e-02	9.726486e-01	0.000000e+00	0.000000e+00	2.431537e+00	0.000000e+00	9.726146e-01	9.999651e-01	0.000000e+00	-3.901357e-01	2.957961e-08	5.457070e-03	1.077703e-03	3.060163e+03	2.468594e+00	0.000000e+00	
9.838552e-02	4.628967e-02	9.720060e-01	0.000000e+00	0.000000e+00	2.429906e+00	0.000000e+00	9.719623e-01	9.999551e-01	0.000000e+00	-3.994285e-01	2.957938e-08	5.349509e-03	9.055792e-04	3.013542e+03	2.427980e+00	0.000000e+00	
1.147221e-01	4.884662e-02	9.716575e-01	0.000000e+00	0.000000e+00	2.429009e+00	0.000000e+00	9.716034e-01	9.999444e-01	0.000000e+00	-4.045416e-01	2.957913e-08	5.232481e-03	7.491899e-04	2.968240e+03	2.388254e+00	0.000000e+00	
1.330575e-01	5.125403e-02	9.715801e-01	0.000000e+00	0.000000e+00	2.428788e+00	0.000000e+00	9.715151e-01	9.999331e-01	0.000000e+00	-4.058002e-01	2.957888e-08	5.108338e-03	6.073917e-04	2.924356e+03	2.349383e+00	0.000000e+00	
1.535115e-01	5.345876e-02	9.717556e-01	0.000000e+00	0.000000e+00	2.429199e+00	0.000000e+00	9.716794e-01	9.999216e-01	0.000000e+00	-4.034590e-01	2.957862e-08	4.978905e-03	4.791565e-04	2.881994e+03	2.311306e+00	0.000000e+00	
1.761797e-01	5.540400e-02	9.721707e-01	0.000000e+00	0.000000e+00	2.430208e+00	0.000000e+00	9.720833e-01	9.999101e-01	0.000000e+00	-3.977054e-01	2.957835e-08	4.845794e-03	3.636121e-04	2.841307e+03	2.273993e+00	0.000000e+00	
2.011248e-01	5.703151e-02	9.728093e-01	0.000000e+00	0.000000e+00	2.431777e+00	0.000000e+00	9.727108e-01	9.998988e-01	0.000000e+00	-3.887655e-01	2.957810e-08	4.710455e-03	2.600182e-04	2.802406e+03	2.237440e+00	0.000000e+00	
2.283666e-01	5.828472e-02	9.736550e-01	0.000000e+00	0.000000e+00	2.433866e+00	0.000000e+00	9.735462e-01	9.998883e-01	0.000000e+00	-3.768640e-01	2.957786e-08	4.574356e-03	1.677371e-04	2.765441e+03	2.201697e+00	0.000000e+00	
2.578733e-01	5.911242e-02	9.746883e-01	0.000000e+00	0.000000e+00	2.436426e+00	0.000000e+00	9.745704e-01	9.998791e-01	0.000000e+00	-3.622736e-01	2.957765e-08	4.438771e-03	8.617686e-05	2.730488e+03	2.166817e+00	0.000000e+00	
2.895540e-01	5.947265e-02	9.758871e-01	0.000000e+00	0.000000e+00	2.439403e+00	0.000000e+00	9.757611e-01	9.998709e-01	0.000000e+00	-3.453113e-01	2.957746e-08	4.304650e-03	1.475780e-05	2.697492e+03	2.132815e+00	0.000000e+00	
3.232528e-01	5.933656e-02	9.772241e-01	0.000000e+00	0.000000e+00	2.442727e+00	0.000000e+00	9.770908e-01	9.998636e-01	0.000000e+00	-3.263674e-01	2.957730e-08	4.172648e-03	-4.710805e-05	2.666223e+03	2.099662e+00	0.000000e+00	
3.587470e-01	5.869148e-02	9.786725e-01	0.000000e+00	0.000000e+00	2.446331e+00	0.000000e+00	9.785325e-01	9.998569e-01	0.000000e+00	-3.058295e-01	2.957714e-08	4.043382e-03	-1.000420e-04	2.636436e+03	2.067356e+00	0.000000e+00	
3.957488e-01	5.754285e-02	9.801998e-01	0.000000e+00	0.000000e+00	2.450134e+00	0.000000e+00	9.800535e-01	9.998507e-01	0.000000e+00	-2.841612e-01	2.957700e-08	3.917394e-03	-1.447233e-04	2.607841e+03	2.035901e+00	0.000000e+00	
4.339121e-01	5.591460e-02	9.817780e-01	0.000000e+00	0.000000e+00	2.454064e+00	0.000000e+00	9.816257e-01	9.998449e-01	0.000000e+00	-2.617628e-01	2.957687e-08	3.795274e-03	-1.819025e-04	2.580263e+03	2.005349e+00	0.000000e+00	
4.728433e-01	5.384781e-02	9.833781e-01	0.000000e+00	0.000000e+00	2.458051e+00	0.000000e+00	9.832204e-01	9.998396e-01	0.000000e+00	-2.390447e-01	2.957675e-08	3.677820e-03	-2.124101e-04	2.553794e+03	1.975839e+00	0.000000e+00	
5.121166e-01	5.139795e-02	9.849783e-01	0.000000e+00	0.000000e+00	2.462039e+00	0.000000e+00	9.848157e-01	9.998349e-01	0.000000e+00	-2.163182e-01	2.957664e-08	3.565456e-03	-2.371072e-04	2.528467e+03	1.947451e+00	0.000000e+00	
5.512916e-01	4.863091e-02	9.865592e-01	0.000000e+00	0.000000e+00	2.465980e+00	0.000000e+00	9.863918e-01	9.998304e-01	0.000000e+00	-1.938643e-01	2.957654e-08	3.458721e-03	-2.568761e-04	2.504613e+03	1.920326e+00	0.000000e+00	
5.899328e-01	4.561861e-02	9.881099e-01	0.000000e+00	0.000000e+00	2.469845e+00	0.000000e+00	9.879380e-01	9.998260e-01	0.000000e+00	-1.718371e-01	2.957644e-08	3.357589e-03	-2.725370e-04	2.482344e+03	1.894482e+00	0.000000e+00	
6.276283e-01	4.243463e-02	9.896221e-01	0.000000e+00	0.000000e+00	2.473614e+00	0.000000e+00	9.894456e-01	9.998216e-01	0.000000e+00	-1.503592e-01	2.957634e-08	3.261776e-03	-2.848255e-04	2.461766e+03	1.869878e+00	0.000000e+00	
6.640066e-01	3.915032e-02	9.910948e-01	0.000000e+00	0.000000e+00	2.477284e+00	0.000000e+00	9.909137e-01	9.998173e-01	0.000000e+00	-1.294452e-01	2.957624e-08	3.170672e-03	-2.943578e-04	2.442858e+03	1.846394e+00	0.000000e+00	
6.987499e-01	3.583186e-02	9.925285e-01	0.000000e+00	0.000000e+00	2.480857e+00	0.000000e+00	9.923426e-01	9.998128e-01	0.000000e+00	-1.090878e-01	2.957614e-08	3.083479e-03	-3.016242e-04	2.425571e+03	1.823852e+00	0.000000e+00	
7.316032e-01	3.253806e-02	9.939287e-01	0.000000e+00	0.000000e+00	2.484345e+00	0.000000e+00	9.937380e-01	9.998081e-01	0.000000e+00	-8.920900e-02	2.957603e-08	2.999232e-03	-3.069861e-04	2.409764e+03	1.802024e+00	0.000000e+00	
7.623778e-01	2.931924e-02	9.953014e-01	0.000000e+00	0.000000e+00	2.487764e+00	0.000000e+00	9.951055e-01	9.998032e-01	0.000000e+00	-6.972767e-02	2.957592e-08	2.916956e-03	-3.106968e-04	2.395291e+03	1.780669e+00	0.000000e+00	
7.909518e-01	2.621660e-02	9.966533e-01	0.000000e+00	0.000000e+00	2.491130e+00	0.000000e+00	9.964519e-01	9.997980e-01	0.000000e+00	-5.054647e-02	2.957580e-08	2.835728e-03	-3.129216e-04	2.382004e+03	1.759550e+00	0.000000e+00	
8.172658e-01	2.326236e-02	9.979905e-01	0.000000e+00	0.000000e+00	2.494458e+00	0.000000e+00	9.977833e-01	9.997924e-01	0.000000e+00	-3.157971e-02	2.957568e-08	2.754751e-03	-3.137639e-04	2.369789e+03	1.738456e+00	0.000000e+00	
8.413160e-01	2.048016e-02	9.993185e-01	0.000000e+00	0.000000e+00	2.497762e+00	0.000000e+00	9.991050e-01	9.997863e-01	0.000000e+00	-1.275044e-02	2.957554e-08	2.673365e-03	-3.132863e-04	2.358566e+03	1.717208e+00	0.000000e+00	
8.631457e-01	1.788578e-02	1.000640e+00	0.000000e+00	0.000000e+00	2.501050e+00	0.000000e+00	1.000420e+00	9.997797e-01	0.000000e+00	5.983646e-03	2.957539e-08	2.591072e-03	-3.115312e-04	2.348313e+03	1.695667e+00	0.000000e+00	
8.828360e-01	1.548810e-02	1.001959e+00	0.000000e+00	0.000000e+00	2.504327e+00	0.000000e+00	1.001731e+00	9.997725e-01	0.000000e+00	2.465747e-02	2.957522e-08	2.507510e-03	-3.085335e-04	2.339035e+03	1.673732e+00	0.000000e+00	
9.004963e-01	1.329003e-02	1.003273e+00	0.000000e+00	0.000000e+00	2.507593e+00	0.000000e+00	1.003037e+00	9.997645e-01	0.000000e+00	4.326554e-02	2.957504e-08	2.422480e-03	-3.043353e-04	2.330830e+03	1.651347e+00	0.000000e+00	
9.162555e-01	1.128962e-02	1.004583e+00	0.000000e+00	0.000000e+00	2.510844e+00	0.000000e+00	1.004337e+00	9.997556e-01	0.000000e+00	6.179229e-02	2.957484e-08	2.335913e-03	-2.989903e-04	2.323918e+03	1.628498e+00	0.000000e+00	
9.302548e-01	9.481022e-03	1.005886e+00	0.000000e+00	0.000000e+00	2.514074e+00	0.000000e+00	1.005630e+00	9.997454e-01	0.000000e+00	8.020286e-02	2.957461e-08	2.247925e-03	-2.925763e-04	2.318797e+03	1.605234e+00	0.000000e+00	
9.426407e-01	7.855481e-03	1.007181e+00	0.000000e+00	0.000000e+00	2.517281e+00	0.000000e+00	1.006912e+00	9.997335e-01	0.000000e+00	9.847378e-02	2.957434e-08	2.158938e-03	-2.852137e-04	2.316475e+03	1.581722e+00	0.000000e+00	
9.535602e-01	6.402178e-03	1.008465e+00	0.000000e+00	0.000000e+00	2.520453e+00	0.000000e+00	1.008181e+00	9.997190e-01	0.000000e+00	1.165532e-01	2.957401e-08	2.069983e-03	-2.771093e-04	2.319008e+03	1.558373e+00	0.000000e+00	
9.631568e-01	5.108981e-03	1.009744e+00	0.000000e+00	0.000000e+00	2.523601e+00	0.000000e+00	1.009440e+00	9.996994e-01	0.000000e+00	1.344887e-01	2.957356e-08	1.983305e-03	-2.686404e-04	2.330480e+03	1.536121e+00	0.000000e+00	
9.715675e-01	3.963073e-03	1.011017e+00	0.000000e+00	0.000000e+00	2.526695e+00	0.000000e+00	1.010678e+00	9.996644e-01	0.000000e+00	1.521204e-01	2.957276e-08	1.904094e-03	-2.605985e-04	2.361116e+03	1.517189e+00	0.000000e+00	
9.789211e-01	2.951446e-03	1.012330e+00	0.000000e+00	0.000000e+00	2.529787e+00	0.000000e+00	1.011915e+00	9.995897e-01	0.000000e+00	1.697376e-01	2.957106e-08	1.846079e-03	-2.549746e-04	2.437666e+03	1.507599e+00	0.000000e+00	
9.853369e-01	2.061293e-03	1.013665e+00	0.000000e+00	0.000000e+00	2.532714e+00	0.000000e+00	1.013086e+00	9.994284e-01	0.000000e+00	1.864182e-01	2.956740e-08	1.849382e-03	-2.574859e-04	2.634983e+03	1.524829e+00	0.000000e+00	
9.909241e-01	1.280290e-03	1.015432e+00	0.000000e+00	0.000000e+00	2.536473e+00	0.000000e+00	1.014589e+00	9.991704e-01	0.000000e+00	2.078421e-01	2.956152e-08	2.033534e-03	-2.851192e-04	3.141975e+03	1.618565e+00	0.000000e+00	
9.957821e-01	5.967887e-04	1.016013e+00	0.000000e+00	0.000000e+00	2.537858e+00	0.000000e+00	1.015143e+00	9.991440e-01	0.000000e+00	2.157328e-01	2.956092e-08	2.707329e-03	-3.818945e-04	4.388380e+03	1.892130e+00	0.000000e+00	
1	2
2	3
3	4
4	5
5	6
6	7
7	8
8	9
9	10
10	11
11	12
12	13
13	14
14	15
15	16
16	17
17	18
18	19
19	20
20	21
21	22
22	23
23	24
24	25
25	26
26	27
27	28
28	29
29	30
30	31
31	32
32	33
33	34
34	35
35	36
36	37
37	38
38	39
39	40
40	41
41	42
42	43
43	44
44	45
45	46
46	47
47	48
48	49
49	50
50	51
51	52
52	53
53	54
54	55
55	56
56	57
57	58
58	59
59	60
60	61
61	62
62	63
63	64
64	65
65	66
66	67
67	68
68	69
69	70
70	71
71	72
72	73
73	74
74	75
75	76
76	77
77	78
78	79
79	80
80	81
81	82
82	83
83	84
84	85
85	86
86	87
87	88
88	89
89	90
90	91
91	92
92	93
93	94
94	95
95	96
96	97
97	98
98	99
99	100
100	101
101	102
102	103
103	104
104	105
105	106
106	107
107	108
108	109
109	110
110	111
111	112
112	113
113	114
114	115
115	116
116	117
117	118
118	119
119	120
120	121
121	122
122	123
123	124
124	125
125	126
126	127
127	128
128	1
