TITLE = "Visualization of the solution"
VARIABLES = "x","y","Density","Momentum_x","Momentum_y","Energy","Nu_Tilde","Pressure","Temperature","Mach","Pressure_Coefficient","Laminar_Viscosity","Skin_Friction_Coefficient_x","Skin_Friction_Coefficient_y","Heat_Flux","Y_Plus","Eddy_Viscosity"
ZONE NODES= 128, ELEMENTS= 128, DATAPACKING=POINT, ZONETYPE=FELINESEG
1.000000e+00	5.352203e-08	1.016386e+00	0.000000e+00	0.000000e+00	2.542556e+00	0.000000e+00	1.017023e+00	1.000626e+00	0.000000e+00	2.425060e-01	2.959464e-08	4.653113e-15	1.869366e-05	3.471187e+02	1.716158e+02	0.000000e+00	
9.957821e-01	-5.967887e-04	1.015976e+00	0.000000e+00	0.000000e+00	2.537760e+00	0.000000e+00	1.015104e+00	9.991415e-01	0.000000e+00	2.151733e-01	2.956087e-08	2.666218e-03	3.761269e-04	4.382023e+03	1.877680e+00	0.000000e+00	
9.909241e-01	-1.280290e-03	1.015382e+00	0.000000e+00	0.000000e+00	2.536341e+00	0.000000e+00	1.014537e+00	9.991678e-01	0.000000e+00	2.070903e-01	2.956146e-08	1.987966e-03	2.787301e-04	3.136232e+03	1.600291e+00	0.000000e+00	
9.853369e-01	-2.061293e-03	1.013626e+00	0.000000e+00	0.000000e+00	2.532610e+00	0.000000e+00	1.013044e+00	9.994255e-01	0.000000e+00	1.858248e-01	2.956733e-08	1.801451e-03	2.508126e-04	2.629007e+03	1.504914e+00	0.000000e+00	
9.789211e-01	-2.951446e-03	1.012287e+00	0.000000e+00	0.000000e+00	2.529670e+00	0.000000e+00	1.011868e+00	9.995863e-01	0.000000e+00	1.690744e-01	2.957099e-08	1.796865e-03	2.481774e-04	2.431282e+03	1.487341e+00	0.000000e+00	
9.715675e-01	-3.963073e-03	1.010966e+00	0.000000e+00	0.000000e+00	2.526558e+00	0.000000e+00	1.010623e+00	9.996609e-01	0.000000e+00	1.513371e-01	2.957268e-08	1.854742e-03	2.538440e-04	2.354818e+03	1.497364e+00	0.000000e+00	
9.631568e-01	-5.108981e-03	1.009676e+00	0.000000e+00	0.000000e+00	2.523423e+00	0.000000e+00	1.009369e+00	9.996961e-01	0.000000e+00	1.334743e-01	2.957348e-08	1.934745e-03	2.620629e-04	2.324781e+03	1.517152e+00	0.000000e+00	
9.535602e-01	-6.402178e-03	1.008375e+00	0.000000e+00	0.000000e+00	2.520221e+00	0.000000e+00	1.008088e+00	9.997159e-01	0.000000e+00	1.152290e-01	2.957394e-08	2.022857e-03	2.708005e-04	2.314155e+03	1.540467e+00	0.000000e+00	
9.426407e-01	-7.855481e-03	1.007063e+00	0.000000e+00	0.000000e+00	2.516979e+00	0.000000e+00	1.006792e+00	9.997305e-01	0.000000e+00	9.675411e-02	2.957427e-08	2.113705e-03	2.792381e-04	2.312575e+03	1.564977e+00	0.000000e+00	
9.302548e-01	-9.481022e-03	1.005735e+00	0.000000e+00	0.000000e+00	2.513690e+00	0.000000e+00	1.005476e+00	9.997425e-01	0.000000e+00	7.801246e-02	2.957454e-08	2.204922e-03	2.869793e-04	2.315880e+03	1.589690e+00	0.000000e+00	
9.162555e-01	-1.128962e-02	1.004394e+00	0.000000e+00	0.000000e+00	2.510363e+00	0.000000e+00	1.004145e+00	9.997529e-01	0.000000e+00	5.905574e-02	2.957478e-08	2.295387e-03	2.938031e-04	2.321985e+03	1.614161e+00	0.000000e+00	
9.004963e-01	-1.329003e-02	1.003040e+00	0.000000e+00	0.000000e+00	2.507004e+00	0.000000e+00	1.002802e+00	9.997620e-01	0.000000e+00	3.991151e-02	2.957498e-08	2.384601e-03	2.995766e-04	2.329856e+03	1.638199e+00	0.000000e+00	
8.828360e-01	-1.548810e-02	1.001677e+00	0.000000e+00	0.000000e+00	2.503618e+00	0.000000e+00	1.001447e+00	9.997701e-01	0.000000e+00	2.061608e-02	2.957517e-08	2.472389e-03	3.042121e-04	2.338970e+03	1.661739e+00	0.000000e+00	
8.631457e-01	-1.788578e-02	1.000306e+00	0.000000e+00	0.000000e+00	2.500208e+00	0.000000e+00	1.000083e+00	9.997775e-01	0.000000e+00	1.186648e-03	2.957534e-08	2.558770e-03	3.076475e-04	2.349093e+03	1.684785e+00	0.000000e+00	
8.413160e-01	-2.048016e-02	9.989260e-01	0.000000e+00	0.000000e+00	2.496776e+00	0.000000e+00	9.987105e-01	9.997843e-01	0.000000e+00	-1.837103e-02	2.957549e-08	2.643912e-03	3.098347e-04	2.360118e+03	1.707389e+00	0.000000e+00	
8.172658e-01	-2.326236e-02	9.975350e-01	0.000000e+00	0.000000e+00	2.493315e+00	0.000000e+00	9.973260e-01	9.997905e-01	0.000000e+00	-3.809392e-02	2.957563e-08	2.728160e-03	3.107352e-04	2.372040e+03	1.729653e+00	0.000000e+00	
7.909518e-01	-2.621660e-02	9.961297e-01	0.000000e+00	0.000000e+00	2.489817e+00	0.000000e+00	9.959268e-01	9.997963e-01	0.000000e+00	-5.802767e-02	2.957576e-08	2.812015e-03	3.103049e-04	2.384891e+03	1.751720e+00	0.000000e+00	
7.623778e-01	-2.931924e-02	9.947042e-01	0.000000e+00	0.000000e+00	2.486267e+00	0.000000e+00	9.945069e-01	9.998017e-01	0.000000e+00	-7.825532e-02	2.957589e-08	2.896149e-03	3.084806e-04	2.398763e+03	1.773777e+00	0.000000e+00	
7.316032e-01	-3.253806e-02	9.932518e-01	0.000000e+00	0.000000e+00	2.482650e+00	0.000000e+00	9.930598e-01	9.998068e-01	0.000000e+00	-9.887061e-02	2.957600e-08	2.981384e-03	3.051593e-04	2.413777e+03	1.796044e+00	0.000000e+00	
6.987499e-01	-3.583186e-02	9.917649e-01	0.000000e+00	0.000000e+00	2.478945e+00	0.000000e+00	9.915780e-01	9.998116e-01	0.000000e+00	-1.199808e-01	2.957611e-08	3.068671e-03	3.001757e-04	2.430088e+03	1.818769e+00	0.000000e+00	
6.640066e-01	-3.915032e-02	9.902369e-01	0.000000e+00	0.000000e+00	2.475137e+00	0.000000e+00	9.900550e-01	9.998163e-01	0.000000e+00	-1.416785e-01	2.957622e-08	3.159017e-03	2.932757e-04	2.447842e+03	1.842201e+00	0.000000e+00	
6.276283e-01	-4.243463e-02	9.886613e-01	0.000000e+00	0.000000e+00	2.471211e+00	0.000000e+00	9.884842e-01	9.998208e-01	0.000000e+00	-1.640555e-01	2.957632e-08	3.253421e-03	2.840960e-04	2.467180e+03	1.866577e+00	0.000000e+00	
5.899328e-01	-4.561861e-02	9.870366e-01	0.000000e+00	0.000000e+00	2.467161e+00	0.000000e+00	9.868643e-01	9.998254e-01	0.000000e+00	-1.871331e-01	2.957643e-08	3.352726e-03	2.721422e-04	2.488147e+03	1.892082e+00	0.000000e+00	
5.512916e-01	-4.863091e-02	9.853626e-01	0.000000e+00	0.000000e+00	2.462988e+00	0.000000e+00	9.851951e-01	9.998300e-01	0.000000e+00	-2.109126e-01	2.957653e-08	3.457594e-03	2.567923e-04	2.510762e+03	1.918849e+00	0.000000e+00	
5.121166e-01	-5.139795e-02	9.836468e-01	0.000000e+00	0.000000e+00	2.458711e+00	0.000000e+00	9.834842e-01	9.998347e-01	0.000000e+00	-2.352862e-01	2.957664e-08	3.568361e-03	2.373003e-04	2.534918e+03	1.946927e+00	0.000000e+00	
4.728433e-01	-5.384781e-02	9.818988e-01	0.000000e+00	0.000000e+00	2.454353e+00	0.000000e+00	9.817412e-01	9.998396e-01	0.000000e+00	-2.601168e-01	2.957675e-08	3.685127e-03	2.128321e-04	2.560509e+03	1.976313e+00	0.000000e+00	
4.339121e-01	-5.591460e-02	9.801368e-01	0.000000e+00	0.000000e+00	2.449962e+00	0.000000e+00	9.799848e-01	9.998449e-01	0.000000e+00	-2.851395e-01	2.957687e-08	3.807562e-03	1.824915e-04	2.587290e+03	2.006913e+00	0.000000e+00	
3.957488e-01	-5.754285e-02	9.783814e-01	0.000000e+00	0.000000e+00	2.445589e+00	0.000000e+00	9.782355e-01	9.998508e-01	0.000000e+00	-3.100604e-01	2.957701e-08	3.935041e-03	1.453752e-04	2.615036e+03	2.038587e+00	0.000000e+00	
3.587470e-01	-5.869148e-02	9.766604e-01	0.000000e+00	0.000000e+00	2.441303e+00	0.000000e+00	9.765211e-01	9.998573e-01	0.000000e+00	-3.344836e-01	2.957715e-08	4.066947e-03	1.006251e-04	2.643718e+03	2.071238e+00	0.000000e+00	
3.232528e-01	-5.933656e-02	9.750009e-01	0.000000e+00	0.000000e+00	2.437172e+00	0.000000e+00	9.748687e-01	9.998645e-01	0.000000e+00	-3.580236e-01	2.957732e-08	4.202627e-03	4.744651e-05	2.673400e+03	2.104791e+00	0.000000e+00	
2.895540e-01	-5.947265e-02	9.734344e-01	0.000000e+00	0.000000e+00	2.433275e+00	0.000000e+00	9.733101e-01	9.998723e-01	0.000000e+00	-3.802283e-01	2.957749e-08	4.341737e-03	-1.488495e-05	2.704421e+03	2.139287e+00	0.000000e+00	
2.578733e-01	-5.911242e-02	9.719868e-01	0.000000e+00	0.000000e+00	2.429679e+00	0.000000e+00	9.718714e-01	9.998813e-01	0.000000e+00	-4.007233e-01	2.957770e-08	4.483814e-03	-8.705135e-05	2.737025e+03	2.174760e+00	0.000000e+00	
2.283666e-01	-5.828472e-02	9.706847e-01	0.000000e+00	0.000000e+00	2.426449e+00	0.000000e+00	9.705795e-01	9.998916e-01	0.000000e+00	-4.191282e-01	2.957793e-08	4.628309e-03	-1.697155e-04	2.771406e+03	2.211257e+00	0.000000e+00	
2.011248e-01	-5.703151e-02	9.695494e-01	0.000000e+00	0.000000e+00	2.423639e+00	0.000000e+00	9.694556e-01	9.999033e-01	0.000000e+00	-4.351395e-01	2.957820e-08	4.774308e-03	-2.635429e-04	2.807544e+03	2.248769e+00	0.000000e+00	
1.761797e-01	-5.540400e-02	9.685994e-01	0.000000e+00	0.000000e+00	2.421295e+00	0.000000e+00	9.685179e-01	9.999159e-01	0.000000e+00	-4.484987e-01	2.957849e-08	4.920550e-03	-3.692215e-04	2.845279e+03	2.287244e+00	0.000000e+00	
1.535115e-01	-5.345876e-02	9.678499e-01	0.000000e+00	0.000000e+00	2.419453e+00	0.000000e+00	9.677811e-01	9.999288e-01	0.000000e+00	-4.589954e-01	2.957878e-08	5.065667e-03	-4.875063e-04	2.884384e+03	2.326654e+00	0.000000e+00	
1.330575e-01	-5.125403e-02	9.673159e-01	0.000000e+00	0.000000e+00	2.418149e+00	0.000000e+00	9.672597e-01	9.999419e-01	0.000000e+00	-4.664233e-01	2.957908e-08	5.208356e-03	-6.192840e-04	2.924669e+03	2.367044e+00	0.000000e+00	
1.147221e-01	-4.884662e-02	9.670091e-01	0.000000e+00	0.000000e+00	2.417414e+00	0.000000e+00	9.669656e-01	9.999550e-01	0.000000e+00	-4.706131e-01	2.957938e-08	5.347179e-03	-7.656126e-04	2.965885e+03	2.408487e+00	0.000000e+00	
9.838552e-02	-4.628967e-02	9.669465e-01	0.000000e+00	0.000000e+00	2.417289e+00	0.000000e+00	9.669156e-01	9.999680e-01	0.000000e+00	-4.713252e-01	2.957967e-08	5.480517e-03	-9.277565e-04	3.007812e+03	2.451101e+00	0.000000e+00	
8.391231e-02	-4.363107e-02	9.671502e-01	0.000000e+00	0.000000e+00	2.417829e+00	0.000000e+00	9.671315e-01	9.999807e-01	0.000000e+00	-4.682494e-01	2.957996e-08	5.606218e-03	-1.107157e-03	3.050216e+03	2.494989e+00	0.000000e+00	
7.115831e-02	-4.091264e-02	9.676478e-01	0.000000e+00	0.000000e+00	2.419102e+00	0.000000e+00	9.676409e-01	9.999929e-01	0.000000e+00	-4.609916e-01	2.958024e-08	5.721303e-03	-1.305353e-03	3.092826e+03	2.540194e+00	0.000000e+00	
5.997667e-02	-3.816999e-02	9.684783e-01	0.000000e+00	0.000000e+00	2.421206e+00	0.000000e+00	9.684822e-01	1.000004e+00	0.000000e+00	-4.490065e-01	2.958049e-08	5.821712e-03	-1.523835e-03	3.135404e+03	2.586674e+00	0.000000e+00	
5.022241e-02	-3.543267e-02	9.696941e-01	0.000000e+00	0.000000e+00	2.424268e+00	0.000000e+00	9.697073e-01	1.000014e+00	0.000000e+00	-4.315540e-01	2.958071e-08	5.901970e-03	-1.763799e-03	3.177826e+03	2.634257e+00	0.000000e+00	
4.175588e-02	-3.272472e-02	9.713619e-01	0.000000e+00	0.000000e+00	2.428454e+00	0.000000e+00	9.713817e-01	1.000020e+00	0.000000e+00	-4.077005e-01	2.958086e-08	5.954960e-03	-2.025782e-03	3.220170e+03	2.682597e+00	0.000000e+00	
3.444509e-02	-3.006547e-02	9.735627e-01	0.000000e+00	0.000000e+00	2.433964e+00	0.000000e+00	9.735858e-01	1.000024e+00	0.000000e+00	-3.763005e-01	2.958094e-08	5.972165e-03	-2.309291e-03	3.262882e+03	2.731225e+00	0.000000e+00	
2.816724e-02	-2.747033e-02	9.763917e-01	0.000000e+00	0.000000e+00	2.441038e+00	0.000000e+00	9.764153e-01	1.000024e+00	0.000000e+00	-3.359913e-01	2.958095e-08	5.944540e-03	-2.612576e-03	3.306883e+03	2.779706e+00	0.000000e+00	
2.280944e-02	-2.495170e-02	9.799589e-01	0.000000e+00	0.000000e+00	2.449952e+00	0.000000e+00	9.799809e-01	1.000022e+00	0.000000e+00	-2.851956e-01	2.958091e-08	5.862325e-03	-2.931894e-03	3.353588e+03	2.827518e+00	0.000000e+00	
1.826886e-02	-2.251990e-02	9.843806e-01	0.000000e+00	0.000000e+00	2.460989e+00	0.000000e+00	9.843955e-01	1.000015e+00	0.000000e+00	-2.223045e-01	2.958074e-08	5.712627e-03	-3.258966e-03	3.404831e+03	2.873283e+00	0.000000e+00	
1.445220e-02	-2.018403e-02	9.897663e-01	0.000000e+00	0.000000e+00	2.474397e+00	0.000000e+00	9.897589e-01	9.999925e-01	0.000000e+00	-1.458956e-01	2.958023e-08	5.480303e-03	-3.578944e-03	3.462997e+03	2.914492e+00	0.000000e+00	
1.127516e-02	-1.795263e-02	9.961889e-01	0.000000e+00	0.000000e+00	2.490326e+00	0.000000e+00	9.961303e-01	9.999412e-01	0.000000e+00	-5.512889e-02	2.957906e-08	5.152200e-03	-3.869740e-03	3.531312e+03	2.947737e+00	0.000000e+00	
8.660978e-03	-1.583433e-02	1.003631e+00	0.000000e+00	0.000000e+00	2.508698e+00	0.000000e+00	1.003479e+00	9.998487e-01	0.000000e+00	4.956603e-02	2.957696e-08	4.723740e-03	-4.103966e-03	3.613747e+03	2.969345e+00	0.000000e+00	
6.539262e-03	-1.383810e-02	1.011950e+00	0.000000e+00	0.000000e+00	2.529146e+00	0.000000e+00	1.011658e+00	9.997114e-01	0.000000e+00	1.660877e-01	2.957383e-08	4.204430e-03	-4.254086e-03	3.714815e+03	2.976361e+00	0.000000e+00	
4.844550e-03	-1.197282e-02	1.020843e+00	0.000000e+00	0.000000e+00	2.550949e+00	0.000000e+00	1.020380e+00	9.995464e-01	0.000000e+00	2.903308e-01	2.957008e-08	3.619566e-03	-4.298777e-03	3.837675e+03	2.967078e+00	0.000000e+00	
3.515320e-03	-1.024671e-02	1.029860e+00	0.000000e+00	0.000000e+00	2.573099e+00	0.000000e+00	1.029240e+00	9.993973e-01	0.000000e+00	4.165518e-01	2.956669e-08	3.004921e-03	-4.226369e-03	3.978294e+03	2.940519e+00	0.000000e+00	
2.493434e-03	-8.666020e-03	1.038525e+00	0.000000e+00	0.000000e+00	2.594450e+00	0.000000e+00	1.037780e+00	9.992822e-01	0.000000e+00	5.382172e-01	2.956407e-08	2.404065e-03	-4.044557e-03	4.140820e+03	2.898995e+00	0.000000e+00	
1.724623e-03	-7.234077e-03	1.046413e+00	0.000000e+00	0.000000e+00	2.613927e+00	0.000000e+00	1.045571e+00	9.991952e-01	0.000000e+00	6.492064e-01	2.956209e-08	1.849780e-03	-3.765049e-03	4.321328e+03	2.842658e+00	0.000000e+00	
1.159193e-03	-5.950300e-03	1.053224e+00	0.000000e+00	0.000000e+00	2.630758e+00	0.000000e+00	1.052303e+00	9.991254e-01	0.000000e+00	7.451198e-01	2.956050e-08	1.364327e-03	-3.404237e-03	4.505013e+03	2.770054e+00	0.000000e+00	
7.531893e-04	-4.810177e-03	1.058824e+00	0.000000e+00	0.000000e+00	2.644589e+00	0.000000e+00	1.057836e+00	9.990665e-01	0.000000e+00	8.239330e-01	2.955916e-08	9.608405e-04	-2.986025e-03	4.672491e+03	2.680100e+00	0.000000e+00	
4.691284e-04	-3.805771e-03	1.063220e+00	0.000000e+00	0.000000e+00	2.655449e+00	0.000000e+00	1.062180e+00	9.990212e-01	0.000000e+00	8.858203e-01	2.955813e-08	6.429818e-04	-2.539094e-03	4.805334e+03	2.572687e+00	0.000000e+00	
2.762360e-04	-2.926719e-03	1.066523e+00	0.000000e+00	0.000000e+00	2.663638e+00	0.000000e+00	1.065455e+00	9.989987e-01	0.000000e+00	9.324868e-01	2.955762e-08	4.057339e-04	-2.091265e-03	4.888735e+03	2.448152e+00	0.000000e+00	
1.500786e-04	-2.161300e-03	1.068895e+00	0.000000e+00	0.000000e+00	2.669595e+00	0.000000e+00	1.067838e+00	9.990112e-01	0.000000e+00	9.664283e-01	2.955790e-08	2.381153e-04	-1.664842e-03	4.911720e+03	2.306187e+00	0.000000e+00	
7.180327e-05	-1.497377e-03	1.070503e+00	0.000000e+00	0.000000e+00	2.673765e+00	0.000000e+00	1.069506e+00	9.990691e-01	0.000000e+00	9.901936e-01	2.955922e-08	1.265103e-04	-1.274925e-03	4.866503e+03	2.144762e+00	0.000000e+00	
2.721276e-05	-9.231024e-04	1.071522e+00	0.000000e+00	0.000000e+00	2.676587e+00	0.000000e+00	1.070635e+00	9.991721e-01	0.000000e+00	1.006275e+00	2.956156e-08	5.731930e-05	-9.294988e-04	4.746753e+03	1.958592e+00	0.000000e+00	
5.818606e-06	-4.273592e-04	1.072039e+00	0.000000e+00	0.000000e+00	2.678190e+00	0.000000e+00	1.071276e+00	9.992885e-01	0.000000e+00	1.015408e+00	2.956421e-08	1.865914e-05	-6.329492e-04	4.550828e+03	1.739213e+00	0.000000e+00	
0.000000e+00	0.000000e+00	1.072423e+00	0.000000e+00	0.000000e+00	2.679357e+00	0.000000e+00	1.071743e+00	9.993658e-01	0.000000e+00	1.022060e+00	2.956597e-08	-9.863151e-17	-3.765862e-04	4.290538e+03	1.444999e+00	0.000000e+00	
5.818606e-06	4.273592e-04	1.072737e+00	0.000000e+00	0.000000e+00	2.680025e+00	0.000000e+00	1.072010e+00	9.993223e-01	0.000000e+00	1.025864e+00	2.956498e-08	-4.886599e-06	-1.657616e-04	4.601158e+03	8.903082e-01	0.000000e+00	
2.721276e-05	9.231024e-04	1.072937e+00	0.000000e+00	0.000000e+00	2.680179e+00	0.000000e+00	1.072072e+00	9.991935e-01	0.000000e+00	1.026744e+00	2.956205e-08	5.932471e-06	9.620187e-05	4.842717e+03	6.305082e-01	0.000000e+00	
7.180327e-05	1.497377e-03	1.072844e+00	0.000000e+00	0.000000e+00	2.679590e+00	0.000000e+00	1.071836e+00	9.990604e-01	0.000000e+00	1.023387e+00	2.955902e-08	4.110555e-05	4.142468e-04	4.995566e+03	1.223894e+00	0.000000e+00	
1.500786e-04	2.161300e-03	1.072265e+00	0.000000e+00	0.000000e+00	2.677904e+00	0.000000e+00	1.071162e+00	9.989713e-01	0.000000e+00	1.013780e+00	2.955699e-08	1.125855e-04	7.871696e-04	5.067248e+03	1.588324e+00	0.000000e+00	
2.762360e-04	2.926719e-03	1.071036e+00	0.000000e+00	0.000000e+00	2.674743e+00	0.000000e+00	1.069897e+00	9.989369e-01	0.000000e+00	9.957641e-01	2.955621e-08	2.344054e-04	1.208191e-03	5.065226e+03	1.864829e+00	0.000000e+00	
4.691284e-04	3.805771e-03	1.068968e+00	0.000000e+00	0.000000e+00	2.669604e+00	0.000000e+00	1.067842e+00	9.989463e-01	0.000000e+00	9.664815e-01	2.955642e-08	4.213209e-04	1.663769e-03	4.997784e+03	2.088286e+00	0.000000e+00	
7.531893e-04	4.810177e-03	1.065874e+00	0.000000e+00	0.000000e+00	2.661978e+00	0.000000e+00	1.064791e+00	9.989840e-01	0.000000e+00	9.230229e-01	2.955728e-08	6.859856e-04	2.131852e-03	4.874365e+03	2.272226e+00	0.000000e+00	
1.159193e-03	5.950300e-03	1.061595e+00	0.000000e+00	0.000000e+00	2.651430e+00	0.000000e+00	1.060572e+00	9.990360e-01	0.000000e+00	8.629145e-01	2.955846e-08	1.035255e-03	2.583146e-03	4.707590e+03	2.422711e+00	0.000000e+00	
1.724623e-03	7.234077e-03	1.056055e+00	0.000000e+00	0.000000e+00	2.637746e+00	0.000000e+00	1.055098e+00	9.990943e-01	0.000000e+00	7.849403e-01	2.955979e-08	1.466751e-03	2.985430e-03	4.514317e+03	2.543128e+00	0.000000e+00	
2.493434e-03	8.666020e-03	1.049311e+00	0.000000e+00	0.000000e+00	2.621073e+00	0.000000e+00	1.048429e+00	9.991595e-01	0.000000e+00	6.899315e-01	2.956128e-08	1.967767e-03	3.310538e-03	4.314929e+03	2.636610e+00	0.000000e+00	
3.515320e-03	1.024671e-02	1.041584e+00	0.000000e+00	0.000000e+00	2.601986e+00	0.000000e+00	1.040794e+00	9.992422e-01	0.000000e+00	5.811605e-01	2.956316e-08	2.517452e-03	3.540753e-03	4.129649e+03	2.707059e+00	0.000000e+00	
4.844550e-03	1.197282e-02	1.033234e+00	0.000000e+00	0.000000e+00	2.581423e+00	0.000000e+00	1.032569e+00	9.993568e-01	0.000000e+00	4.639840e-01	2.956577e-08	3.089812e-03	3.669615e-03	3.971772e+03	2.758354e+00	0.000000e+00	
6.539262e-03	1.383810e-02	1.024698e+00	0.000000e+00	0.000000e+00	2.560485e+00	0.000000e+00	1.024194e+00	9.995085e-01	0.000000e+00	3.446703e-01	2.956922e-08	3.652600e-03	3.695739e-03	3.840251e+03	2.792024e+00	0.000000e+00	
8.660978e-03	1.583433e-02	1.016424e+00	0.000000e+00	0.000000e+00	2.540202e+00	0.000000e+00	1.016081e+00	9.996623e-01	0.000000e+00	2.290893e-01	2.957272e-08	4.171669e-03	3.624329e-03	3.732178e+03	2.808570e+00	0.000000e+00	
1.127516e-02	1.795263e-02	1.008769e+00	0.000000e+00	0.000000e+00	2.521378e+00	0.000000e+00	1.008551e+00	9.997840e-01	0.000000e+00	1.218219e-01	2.957548e-08	4.620464e-03	3.470361e-03	3.643422e+03	2.809395e+00	0.000000e+00	
1.445220e-02	2.018403e-02	1.001940e+00	0.000000e+00	0.000000e+00	2.504513e+00	0.000000e+00	1.001805e+00	9.998657e-01	0.000000e+00	2.571648e-02	2.957734e-08	4.983563e-03	3.254545e-03	3.567263e+03	2.796580e+00	0.000000e+00	
1.826886e-02	2.251990e-02	9.960127e-01	0.000000e+00	0.000000e+00	2.489821e+00	0.000000e+00	9.959284e-01	9.999153e-01	0.000000e+00	-5.800453e-02	2.957847e-08	5.258611e-03	2.999957e-03	3.498895e+03	2.773194e+00	0.000000e+00	
2.280944e-02	2.495170e-02	9.909674e-01	0.000000e+00	0.000000e+00	2.477281e+00	0.000000e+00	9.909126e-01	9.999447e-01	0.000000e+00	-1.294604e-01	2.957914e-08	5.452743e-03	2.727052e-03	3.435621e+03	2.742393e+00	0.000000e+00	
2.816724e-02	2.747033e-02	9.867355e-01	0.000000e+00	0.000000e+00	2.466747e+00	0.000000e+00	9.866989e-01	9.999629e-01	0.000000e+00	-1.894900e-01	2.957955e-08	5.577285e-03	2.451171e-03	3.376086e+03	2.706823e+00	0.000000e+00	
3.444509e-02	3.006547e-02	9.832299e-01	0.000000e+00	0.000000e+00	2.458012e+00	0.000000e+00	9.832047e-01	9.999743e-01	0.000000e+00	-2.392686e-01	2.957982e-08	5.643734e-03	2.182294e-03	3.319424e+03	2.668314e+00	0.000000e+00	
4.175588e-02	3.272472e-02	9.803601e-01	0.000000e+00	0.000000e+00	2.450851e+00	0.000000e+00	9.803403e-01	9.999799e-01	0.000000e+00	-2.800747e-01	2.957994e-08	5.661994e-03	1.926120e-03	3.264918e+03	2.627946e+00	0.000000e+00	
5.022241e-02	3.543267e-02	9.780428e-01	0.000000e+00	0.000000e+00	2.445058e+00	0.000000e+00	9.780234e-01	9.999801e-01	0.000000e+00	-3.130819e-01	2.957995e-08	5.641513e-03	1.685962e-03	3.212090e+03	2.586605e+00	0.000000e+00	
5.997667e-02	3.816999e-02	9.762047e-01	0.000000e+00	0.000000e+00	2.440454e+00	0.000000e+00	9.761817e-01	9.999765e-01	0.000000e+00	-3.393186e-01	2.957986e-08	5.590926e-03	1.463426e-03	3.160685e+03	2.545030e+00	0.000000e+00	
7.115831e-02	4.091264e-02	9.747831e-01	0.000000e+00	0.000000e+00	2.436885e+00	0.000000e+00	9.747540e-01	9.999701e-01	0.000000e+00	-3.596580e-01	2.957972e-08	5.517409e-03	1.258833e-03	3.110600e+03	2.503744e+00	0.000000e+00	
8.391231e-02	4.363107e-02	9.737277e-01	0.000000e+00	0.000000e+00	2.434227e+00	0.000000e+00	9.736907e-01	9.999619e-01	0.000000e+00	-3.748065e-01	2.957953e-08	5.426575e-03	1.071680e-03	3.061828e+03	2.463058e+00	0.000000e+00	
9.838552e-02	4.628967e-02	9.730003e-01	0.000000e+00	0.000000e+00	2.432385e+00	0.000000e+00	9.729540e-01	9.999525e-01	0.000000e+00	-3.853006e-01	2.957932e-08	5.322687e-03	9.010386e-04	3.014435e+03	2.423128e+00	0.000000e+00	
1.147221e-01	4.884662e-02	9.725721e-01	0.000000e+00	0.000000e+00	2.431290e+00	0.000000e+00	9.725159e-01	9.999422e-01	0.000000e+00	-3.915430e-01	2.957908e-08	5.208964e-03	7.458228e-04	2.968514e+03	2.384007e+00	0.000000e+00	
1.330575e-01	5.125403e-02	9.724199e-01	0.000000e+00	0.000000e+00	2.430883e+00	0.000000e+00	9.723531e-01	9.999313e-01	0.000000e+00	-3.938615e-01	2.957884e-08	5.087800e-03	6.049497e-04	2.924135e+03	2.345672e+00	0.000000e+00	
1.535115e-01	5.345876e-02	9.725254e-01	0.000000e+00	0.000000e+00	2.431119e+00	0.000000e+00	9.724478e-01	9.999202e-01	0.000000e+00	-3.925127e-01	2.957858e-08	4.961058e-03	4.774389e-04	2.881387e+03	2.308076e+00	0.000000e+00	
1.761797e-01	5.540400e-02	9.728752e-01	0.000000e+00	0.000000e+00	2.431966e+00	0.000000e+00	9.727866e-01	9.999089e-01	0.000000e+00	-3.876866e-01	2.957833e-08	4.830386e-03	3.624560e-04	2.840406e+03	2.271200e+00	0.000000e+00	
2.011248e-01	5.703151e-02	9.734527e-01	0.000000e+00	0.000000e+00	2.433383e+00	0.000000e+00	9.733533e-01	9.998979e-01	0.000000e+00	-3.796127e-01	2.957808e-08	4.697264e-03	2.592900e-04	2.801287e+03	2.235045e+00	0.000000e+00	
2.283666e-01	5.828472e-02	9.742415e-01	0.000000e+00	0.000000e+00	2.435330e+00	0.000000e+00	9.741321e-01	9.998877e-01	0.000000e+00	-3.685184e-01	2.957784e-08	4.563176e-03	1.673271e-04	2.764166e+03	2.199668e+00	0.000000e+00	
2.578733e-01	5.911242e-02	9.752219e-01	0.000000e+00	0.000000e+00	2.437759e+00	0.000000e+00	9.751035e-01	9.998786e-01	0.000000e+00	-3.546786e-01	2.957764e-08	4.429398e-03	8.599490e-05	2.729103e+03	2.165122e+00	0.000000e+00	
2.895540e-01	5.947265e-02	9.763716e-01	0.000000e+00	0.000000e+00	2.440613e+00	0.000000e+00	9.762453e-01	9.998706e-01	0.000000e+00	-3.384126e-01	2.957746e-08	4.296889e-03	1.473120e-05	2.696027e+03	2.131421e+00	0.000000e+00	
3.232528e-01	5.933656e-02	9.776633e-01	0.000000e+00	0.000000e+00	2.443825e+00	0.000000e+00	9.775299e-01	9.998635e-01	0.000000e+00	-3.201124e-01	2.957729e-08	4.166322e-03	-4.703664e-05	2.664703e+03	2.098541e+00	0.000000e+00	
3.587470e-01	5.869148e-02	9.790700e-01	0.000000e+00	0.000000e+00	2.447325e+00	0.000000e+00	9.789299e-01	9.998569e-01	0.000000e+00	-3.001682e-01	2.957714e-08	4.038345e-03	-9.991738e-05	2.634884e+03	2.066487e+00	0.000000e+00	
3.957488e-01	5.754285e-02	9.805590e-01	0.000000e+00	0.000000e+00	2.451031e+00	0.000000e+00	9.804126e-01	9.998507e-01	0.000000e+00	-2.790454e-01	2.957700e-08	3.913532e-03	-1.445806e-04	2.606283e+03	2.035270e+00	0.000000e+00	
4.339121e-01	5.591460e-02	9.821020e-01	0.000000e+00	0.000000e+00	2.454874e+00	0.000000e+00	9.819497e-01	9.998450e-01	0.000000e+00	-2.571471e-01	2.957687e-08	3.792507e-03	-1.817700e-04	2.578739e+03	2.004948e+00	0.000000e+00	
4.728433e-01	5.384781e-02	9.836700e-01	0.000000e+00	0.000000e+00	2.458781e+00	0.000000e+00	9.835123e-01	9.998397e-01	0.000000e+00	-2.348867e-01	2.957675e-08	3.676035e-03	-2.123070e-04	2.552306e+03	1.975652e+00	0.000000e+00	
5.121166e-01	5.139795e-02	9.852408e-01	0.000000e+00	0.000000e+00	2.462695e+00	0.000000e+00	9.850782e-01	9.998350e-01	0.000000e+00	-2.125785e-01	2.957664e-08	3.564597e-03	-2.370500e-04	2.527045e+03	1.947476e+00	0.000000e+00	
5.512916e-01	4.863091e-02	9.867948e-01	0.000000e+00	0.000000e+00	2.466569e+00	0.000000e+00	9.866275e-01	9.998305e-01	0.000000e+00	-1.905065e-01	2.957654e-08	3.458693e-03	-2.568740e-04	2.503252e+03	1.920548e+00	0.000000e+00	
5.899328e-01	4.561861e-02	9.883210e-01	0.000000e+00	0.000000e+00	2.470373e+00	0.000000e+00	9.881492e-01	9.998262e-01	0.000000e+00	-1.688283e-01	2.957644e-08	3.358325e-03	-2.725967e-04	2.481049e+03	1.894892e+00	0.000000e+00	
6.276283e-01	4.243463e-02	9.898108e-01	0.000000e+00	0.000000e+00	2.474086e+00	0.000000e+00	9.896344e-01	9.998218e-01	0.000000e+00	-1.476694e-01	2.957635e-08	3.263224e-03	-2.849520e-04	2.460542e+03	1.870472e+00	0.000000e+00	
6.640066e-01	3.915032e-02	9.912629e-01	0.000000e+00	0.000000e+00	2.477705e+00	0.000000e+00	9.910820e-01	9.998175e-01	0.000000e+00	-1.270475e-01	2.957625e-08	3.172791e-03	-2.945546e-04	2.441713e+03	1.847167e+00	0.000000e+00	
6.987499e-01	3.583186e-02	9.926777e-01	0.000000e+00	0.000000e+00	2.481230e+00	0.000000e+00	9.924922e-01	9.998131e-01	0.000000e+00	-1.069578e-01	2.957615e-08	3.086238e-03	-3.018941e-04	2.424513e+03	1.824804e+00	0.000000e+00	
7.316032e-01	3.253806e-02	9.940607e-01	0.000000e+00	0.000000e+00	2.484676e+00	0.000000e+00	9.938703e-01	9.998085e-01	0.000000e+00	-8.732518e-02	2.957604e-08	3.002607e-03	-3.073315e-04	2.408799e+03	1.803157e+00	0.000000e+00	
7.623778e-01	2.931924e-02	9.954173e-01	0.000000e+00	0.000000e+00	2.488055e+00	0.000000e+00	9.952218e-01	9.998036e-01	0.000000e+00	-6.807069e-02	2.957593e-08	2.920929e-03	-3.111200e-04	2.394426e+03	1.781985e+00	0.000000e+00	
7.909518e-01	2.621660e-02	9.967545e-01	0.000000e+00	0.000000e+00	2.491384e+00	0.000000e+00	9.965535e-01	9.997984e-01	0.000000e+00	-4.909893e-02	2.957581e-08	2.840287e-03	-3.134247e-04	2.381247e+03	1.761053e+00	0.000000e+00	
8.172658e-01	2.326236e-02	9.980781e-01	0.000000e+00	0.000000e+00	2.494678e+00	0.000000e+00	9.978713e-01	9.997928e-01	0.000000e+00	-3.032583e-02	2.957569e-08	2.759889e-03	-3.143492e-04	2.369150e+03	1.740152e+00	0.000000e+00	
8.413160e-01	2.048016e-02	9.993935e-01	0.000000e+00	0.000000e+00	2.497951e+00	0.000000e+00	9.991804e-01	9.997868e-01	0.000000e+00	-1.167562e-02	2.957555e-08	2.679080e-03	-3.139560e-04	2.358058e+03	1.719106e+00	0.000000e+00	
8.631457e-01	1.788578e-02	1.000704e+00	0.000000e+00	0.000000e+00	2.501210e+00	0.000000e+00	1.000484e+00	9.997802e-01	0.000000e+00	6.893246e-03	2.957540e-08	2.597362e-03	-3.122875e-04	2.347950e+03	1.697777e+00	0.000000e+00	
8.828360e-01	1.548810e-02	1.002011e+00	0.000000e+00	0.000000e+00	2.504460e+00	0.000000e+00	1.001784e+00	9.997730e-01	0.000000e+00	2.541526e-02	2.957524e-08	2.514368e-03	-3.093773e-04	2.338831e+03	1.676063e+00	0.000000e+00	
9.004963e-01	1.329003e-02	1.003316e+00	0.000000e+00	0.000000e+00	2.507701e+00	0.000000e+00	1.003080e+00	9.997651e-01	0.000000e+00	4.388495e-02	2.957505e-08	2.429895e-03	-3.052668e-04	2.330798e+03	1.653907e+00	0.000000e+00	
9.162555e-01	1.128962e-02	1.004617e+00	0.000000e+00	0.000000e+00	2.510931e+00	0.000000e+00	1.004372e+00	9.997562e-01	0.000000e+00	6.228704e-02	2.957485e-08	2.343866e-03	-3.000083e-04	2.324070e+03	1.631295e+00	0.000000e+00	
9.302548e-01	9.481022e-03	1.005912e+00	0.000000e+00	0.000000e+00	2.514142e+00	0.000000e+00	1.005657e+00	9.997460e-01	0.000000e+00	8.058692e-02	2.957462e-08	2.256387e-03	-2.936777e-04	2.319141e+03	1.608273e+00	0.000000e+00	
9.426407e-01	7.855481e-03	1.007200e+00	0.000000e+00	0.000000e+00	2.517331e+00	0.000000e+00	1.006933e+00	9.997342e-01	0.000000e+00	9.876190e-02	2.957435e-08	2.167864e-03	-2.863930e-04	2.317013e+03	1.585003e+00	0.000000e+00	
9.535602e-01	6.402178e-03	1.008479e+00	0.000000e+00	0.000000e+00	2.520490e+00	0.000000e+00	1.008196e+00	9.997198e-01	0.000000e+00	1.167601e-01	2.957402e-08	2.079312e-03	-2.783582e-04	2.319738e+03	1.561891e+00	0.000000e+00	
9.631568e-01	5.108981e-03	1.009753e+00	0.000000e+00	0.000000e+00	2.523626e+00	0.000000e+00	1.009450e+00	9.997002e-01	0.000000e+00	1.346311e-01	2.957358e-08	1.992953e-03	-2.699472e-04	2.331386e+03	1.539859e+00	0.000000e+00	
9.715675e-01	3.963073e-03	1.011023e+00	0.000000e+00	0.000000e+00	2.526711e+00	0.000000e+00	1.010685e+00	9.996653e-01	0.000000e+00	1.522136e-01	2.957278e-08	1.913938e-03	-2.619456e-04	2.362149e+03	1.521108e+00	0.000000e+00	
9.789211e-01	2.951446e-03	1.012334e+00	0.000000e+00	0.000000e+00	2.529798e+00	0.000000e+00	1.011919e+00	9.995905e-01	0.000000e+00	1.698036e-01	2.957108e-08	1.855946e-03	-2.563375e-04	2.438739e+03	1.511625e+00	0.000000e+00	
9.853369e-01	2.061293e-03	1.013668e+00	0.000000e+00	0.000000e+00	2.532722e+00	0.000000e+00	1.013089e+00	9.994291e-01	0.000000e+00	1.864669e-01	2.956741e-08	1.859034e-03	-2.588297e-04	2.635967e+03	1.528804e+00	0.000000e+00	
9.909241e-01	1.280290e-03	1.015437e+00	0.000000e+00	0.000000e+00	2.536487e+00	0.000000e+00	1.014595e+00	9.991710e-01	0.000000e+00	2.079200e-01	2.956154e-08	2.042813e-03	-2.864202e-04	3.142914e+03	1.622257e+00	0.000000e+00	
9.957821e-01	5.967887e-04	1.016015e+00	0.000000e+00	0.000000e+00	2.537864e+00	0.000000e+00	1.015146e+00	9.991445e-01	0.000000e+00	2.157692e-01	2.956094e-08	2.715969e-03	-3.831133e-04	4.389486e+03	1.895148e+00	0.000000e+00	
1	2
2	3
3	4
4	5
5	6
6	7
7	8
8	9
9	10
10	11
11	12
12	13
13	14
14	15
15	16
16	17
17	18
18	19
19	20
20	21
21	22
22	23
23	24
24	25
25	26
26	27
27	28
28	29
29	30
30	31
31	32
32	33
33	34
34	35
35	36
36	37
37	38
38	39
39	40
40	41
41	42
42	43
43	44
44	45
45	46
46	47
47	48
48	49
49	50
50	51
51	52
52	53
53	54
54	55
55	56
56	57
57	58
58	59
59	60
60	61
61	62
62	63
63	64
64	65
65	66
66	67
67	68
68	69
69	70
70	71
71	72
72	73
73	74
74	75
75	76
76	77
77	78
78	79
79	80
80	81
81	82
82	83
83	84
84	85
85	86
86	87
87	88
88	89
89	90
90	91
91	92
92	93
93	94
94	95
95	96
96	97
97	98
98	99
99	100
100	101
101	102
102	103
103	104
104	105
105	106
106	107
107	108
108	109
109	110
110	111
111	112
112	113
113	114
114	115
115	116
116	117
117	118
118	119
119	120
120	121
121	122
122	123
123	124
124	125
125	126
126	127
127	128
128	1
