TITLE = "Visualization of the solution"
VARIABLES = "x","y","Density","Momentum_x","Momentum_y","Energy","Nu_Tilde","Pressure","Temperature","Mach","Pressure_Coefficient","Laminar_Viscosity","Skin_Friction_Coefficient_x","Skin_Friction_Coefficient_y","Heat_Flux","Y_Plus","Eddy_Viscosity"
ZONE NODES= 128, ELEMENTS= 128, DATAPACKING=POINT, ZONETYPE=FELINESEG
1.000000e+00	5.352203e-08	1.015245e+00	0.000000e+00	0.000000e+00	2.539988e+00	0.000000e+00	1.015995e+00	1.000739e+00	0.000000e+00	2.278699e-01	2.959721e-08	1.001964e-13	4.025377e-04	3.530633e+02	7.958513e+02	0.000000e+00	
9.957821e-01	-5.967887e-04	1.014948e+00	0.000000e+00	0.000000e+00	2.535174e+00	0.000000e+00	1.014070e+00	9.991344e-01	0.000000e+00	2.004374e-01	2.956071e-08	2.276317e-03	3.211231e-04	4.249836e+03	1.734094e+00	0.000000e+00	
9.909241e-01	-1.280290e-03	1.014323e+00	0.000000e+00	0.000000e+00	2.533633e+00	0.000000e+00	1.013453e+00	9.991423e-01	0.000000e+00	1.916582e-01	2.956088e-08	1.447403e-03	2.029384e-04	2.945501e+03	1.364807e+00	0.000000e+00	
9.853369e-01	-2.061293e-03	1.012897e+00	0.000000e+00	0.000000e+00	2.530752e+00	0.000000e+00	1.012301e+00	9.994117e-01	0.000000e+00	1.752393e-01	2.956701e-08	1.178407e-03	1.640674e-04	2.399049e+03	1.216736e+00	0.000000e+00	
9.789211e-01	-2.951446e-03	1.011684e+00	0.000000e+00	0.000000e+00	2.528167e+00	0.000000e+00	1.011267e+00	9.995875e-01	0.000000e+00	1.605074e-01	2.957102e-08	1.130988e-03	1.562085e-04	2.185771e+03	1.179647e+00	0.000000e+00	
9.715675e-01	-3.963073e-03	1.010468e+00	0.000000e+00	0.000000e+00	2.525340e+00	0.000000e+00	1.010136e+00	9.996720e-01	0.000000e+00	1.443999e-01	2.957294e-08	1.170453e-03	1.601908e-04	2.110246e+03	1.189191e+00	0.000000e+00	
9.631568e-01	-5.108981e-03	1.009197e+00	0.000000e+00	0.000000e+00	2.522263e+00	0.000000e+00	1.008905e+00	9.997106e-01	0.000000e+00	1.268619e-01	2.957382e-08	1.245887e-03	1.687565e-04	2.089600e+03	1.217163e+00	0.000000e+00	
9.535602e-01	-6.402178e-03	1.007852e+00	0.000000e+00	0.000000e+00	2.518951e+00	0.000000e+00	1.007581e+00	9.997308e-01	0.000000e+00	1.079941e-01	2.957427e-08	1.338030e-03	1.791225e-04	2.091087e+03	1.252521e+00	0.000000e+00	
9.426407e-01	-7.855481e-03	1.006421e+00	0.000000e+00	0.000000e+00	2.515407e+00	0.000000e+00	1.006163e+00	9.997438e-01	0.000000e+00	8.779473e-02	2.957457e-08	1.439041e-03	1.901093e-04	2.102258e+03	1.290861e+00	0.000000e+00	
9.302548e-01	-9.481022e-03	1.004903e+00	0.000000e+00	0.000000e+00	2.511640e+00	0.000000e+00	1.004656e+00	9.997539e-01	0.000000e+00	6.632839e-02	2.957480e-08	1.545202e-03	2.011141e-04	2.118127e+03	1.330225e+00	0.000000e+00	
9.162555e-01	-1.128962e-02	1.003301e+00	0.000000e+00	0.000000e+00	2.507656e+00	0.000000e+00	1.003062e+00	9.997623e-01	0.000000e+00	4.362601e-02	2.957499e-08	1.654439e-03	2.117636e-04	2.136515e+03	1.369635e+00	0.000000e+00	
9.004963e-01	-1.329003e-02	1.001618e+00	0.000000e+00	0.000000e+00	2.503468e+00	0.000000e+00	1.001387e+00	9.997697e-01	0.000000e+00	1.976013e-02	2.957516e-08	1.765441e-03	2.217917e-04	2.156316e+03	1.408557e+00	0.000000e+00	
8.828360e-01	-1.548810e-02	9.998585e-01	0.000000e+00	0.000000e+00	2.499087e+00	0.000000e+00	9.996347e-01	9.997761e-01	0.000000e+00	-5.204695e-03	2.957531e-08	1.877320e-03	2.309926e-04	2.176999e+03	1.446695e+00	0.000000e+00	
8.631457e-01	-1.788578e-02	9.980272e-01	0.000000e+00	0.000000e+00	2.494524e+00	0.000000e+00	9.978095e-01	9.997819e-01	0.000000e+00	-3.120681e-02	2.957544e-08	1.989537e-03	2.392071e-04	2.198393e+03	1.483912e+00	0.000000e+00	
8.413160e-01	-2.048016e-02	9.961265e-01	0.000000e+00	0.000000e+00	2.489786e+00	0.000000e+00	9.959145e-01	9.997872e-01	0.000000e+00	-5.820199e-02	2.957556e-08	2.101935e-03	2.463215e-04	2.220617e+03	1.520226e+00	0.000000e+00	
8.172658e-01	-2.326236e-02	9.941551e-01	0.000000e+00	0.000000e+00	2.484872e+00	0.000000e+00	9.939489e-01	9.997926e-01	0.000000e+00	-8.620485e-02	2.957568e-08	2.214792e-03	2.522630e-04	2.244025e+03	1.555796e+00	0.000000e+00	
7.909518e-01	-2.621660e-02	9.921099e-01	0.000000e+00	0.000000e+00	2.479774e+00	0.000000e+00	9.919098e-01	9.997983e-01	0.000000e+00	-1.152544e-01	2.957581e-08	2.328594e-03	2.569596e-04	2.268920e+03	1.590831e+00	0.000000e+00	
7.623778e-01	-2.931924e-02	9.899837e-01	0.000000e+00	0.000000e+00	2.474474e+00	0.000000e+00	9.897898e-01	9.998041e-01	0.000000e+00	-1.454562e-01	2.957594e-08	2.443813e-03	2.603005e-04	2.295385e+03	1.625507e+00	0.000000e+00	
7.316032e-01	-3.253806e-02	9.877665e-01	0.000000e+00	0.000000e+00	2.468947e+00	0.000000e+00	9.875786e-01	9.998098e-01	0.000000e+00	-1.769564e-01	2.957607e-08	2.560976e-03	2.621284e-04	2.323325e+03	1.659997e+00	0.000000e+00	
6.987499e-01	-3.583186e-02	9.854451e-01	0.000000e+00	0.000000e+00	2.463158e+00	0.000000e+00	9.852632e-01	9.998154e-01	0.000000e+00	-2.099432e-01	2.957620e-08	2.680833e-03	2.622375e-04	2.352659e+03	1.694524e+00	0.000000e+00	
6.640066e-01	-3.915032e-02	9.830054e-01	0.000000e+00	0.000000e+00	2.457073e+00	0.000000e+00	9.828291e-01	9.998207e-01	0.000000e+00	-2.446190e-01	2.957632e-08	2.804350e-03	2.603493e-04	2.383362e+03	1.729354e+00	0.000000e+00	
6.276283e-01	-4.243463e-02	9.804307e-01	0.000000e+00	0.000000e+00	2.450650e+00	0.000000e+00	9.802600e-01	9.998259e-01	0.000000e+00	-2.812194e-01	2.957644e-08	2.932654e-03	2.560858e-04	2.415469e+03	1.764774e+00	0.000000e+00	
5.899328e-01	-4.561861e-02	9.777088e-01	0.000000e+00	0.000000e+00	2.443859e+00	0.000000e+00	9.775437e-01	9.998310e-01	0.000000e+00	-3.199163e-01	2.957656e-08	3.066807e-03	2.489341e-04	2.448925e+03	1.801028e+00	0.000000e+00	
5.512916e-01	-4.863091e-02	9.748274e-01	0.000000e+00	0.000000e+00	2.436669e+00	0.000000e+00	9.746677e-01	9.998362e-01	0.000000e+00	-3.608876e-01	2.957667e-08	3.207800e-03	2.382404e-04	2.483661e+03	1.838321e+00	0.000000e+00	
5.121166e-01	-5.139795e-02	9.717814e-01	0.000000e+00	0.000000e+00	2.429069e+00	0.000000e+00	9.716274e-01	9.998416e-01	0.000000e+00	-4.042000e-01	2.957679e-08	3.356365e-03	2.232023e-04	2.519454e+03	1.876775e+00	0.000000e+00	
4.728433e-01	-5.384781e-02	9.685664e-01	0.000000e+00	0.000000e+00	2.421046e+00	0.000000e+00	9.684183e-01	9.998471e-01	0.000000e+00	-4.499179e-01	2.957692e-08	3.513055e-03	2.028942e-04	2.556081e+03	1.916464e+00	0.000000e+00	
4.339121e-01	-5.591460e-02	9.651871e-01	0.000000e+00	0.000000e+00	2.412613e+00	0.000000e+00	9.650452e-01	9.998529e-01	0.000000e+00	-4.979715e-01	2.957705e-08	3.678054e-03	1.762844e-04	2.593156e+03	1.957374e+00	0.000000e+00	
3.957488e-01	-5.754285e-02	9.616487e-01	0.000000e+00	0.000000e+00	2.403783e+00	0.000000e+00	9.615133e-01	9.998591e-01	0.000000e+00	-5.482875e-01	2.957719e-08	3.851339e-03	1.422830e-04	2.630336e+03	1.999456e+00	0.000000e+00	
3.587470e-01	-5.869148e-02	9.579639e-01	0.000000e+00	0.000000e+00	2.394589e+00	0.000000e+00	9.578355e-01	9.998659e-01	0.000000e+00	-6.006814e-01	2.957735e-08	4.032614e-03	9.977558e-05	2.667214e+03	2.042627e+00	0.000000e+00	
3.232528e-01	-5.933656e-02	9.541440e-01	0.000000e+00	0.000000e+00	2.385058e+00	0.000000e+00	9.540232e-01	9.998734e-01	0.000000e+00	-6.549921e-01	2.957752e-08	4.221689e-03	4.766171e-05	2.703579e+03	2.086859e+00	0.000000e+00	
2.895540e-01	-5.947265e-02	9.502052e-01	0.000000e+00	0.000000e+00	2.375234e+00	0.000000e+00	9.500935e-01	9.998824e-01	0.000000e+00	-7.109756e-01	2.957772e-08	4.418572e-03	-1.514837e-05	2.739292e+03	2.132211e+00	0.000000e+00	
2.578733e-01	-5.911242e-02	9.461560e-01	0.000000e+00	0.000000e+00	2.365139e+00	0.000000e+00	9.460556e-01	9.998939e-01	0.000000e+00	-7.684999e-01	2.957799e-08	4.623831e-03	-8.976973e-05	2.774431e+03	2.178891e+00	0.000000e+00	
2.283666e-01	-5.828472e-02	9.420063e-01	0.000000e+00	0.000000e+00	2.354801e+00	0.000000e+00	9.419204e-01	9.999088e-01	0.000000e+00	-8.274103e-01	2.957833e-08	4.837839e-03	-1.773988e-04	2.808738e+03	2.227080e+00	0.000000e+00	
2.011248e-01	-5.703151e-02	9.377580e-01	0.000000e+00	0.000000e+00	2.344224e+00	0.000000e+00	9.376895e-01	9.999270e-01	0.000000e+00	-8.876835e-01	2.957874e-08	5.060358e-03	-2.793329e-04	2.841605e+03	2.276841e+00	0.000000e+00	
1.761797e-01	-5.540400e-02	9.334086e-01	0.000000e+00	0.000000e+00	2.333399e+00	0.000000e+00	9.333598e-01	9.999477e-01	0.000000e+00	-9.493660e-01	2.957921e-08	5.290726e-03	-3.969983e-04	2.872092e+03	2.328179e+00	0.000000e+00	
1.535115e-01	-5.345876e-02	9.289489e-01	0.000000e+00	0.000000e+00	2.322304e+00	0.000000e+00	9.289215e-01	9.999705e-01	0.000000e+00	-1.012595e+00	2.957973e-08	5.528670e-03	-5.320644e-04	2.899162e+03	2.381233e+00	0.000000e+00	
1.330575e-01	-5.125403e-02	9.243630e-01	0.000000e+00	0.000000e+00	2.310897e+00	0.000000e+00	9.243588e-01	9.999955e-01	0.000000e+00	-1.077596e+00	2.958030e-08	5.774462e-03	-6.865951e-04	2.921667e+03	2.436301e+00	0.000000e+00	
1.147221e-01	-4.884662e-02	9.196293e-01	0.000000e+00	0.000000e+00	2.299126e+00	0.000000e+00	9.196503e-01	1.000023e+00	0.000000e+00	-1.144673e+00	2.958092e-08	6.028856e-03	-8.632154e-04	2.938243e+03	2.493835e+00	0.000000e+00	
9.838552e-02	-4.628967e-02	9.147279e-01	0.000000e+00	0.000000e+00	2.286942e+00	0.000000e+00	9.147766e-01	1.000053e+00	0.000000e+00	-1.214104e+00	2.958161e-08	6.292684e-03	-1.065242e-03	2.947070e+03	2.554375e+00	0.000000e+00	
8.391231e-02	-4.363107e-02	9.096387e-01	0.000000e+00	0.000000e+00	2.274295e+00	0.000000e+00	9.097181e-01	1.000087e+00	0.000000e+00	-1.286169e+00	2.958238e-08	6.566699e-03	-1.296840e-03	2.945864e+03	2.618540e+00	0.000000e+00	
7.115831e-02	-4.091264e-02	9.043463e-01	0.000000e+00	0.000000e+00	2.261149e+00	0.000000e+00	9.044596e-01	1.000125e+00	0.000000e+00	-1.361082e+00	2.958325e-08	6.851225e-03	-1.563152e-03	2.931746e+03	2.687002e+00	0.000000e+00	
5.997667e-02	-3.816999e-02	8.988473e-01	0.000000e+00	0.000000e+00	2.247497e+00	0.000000e+00	8.989986e-01	1.000168e+00	0.000000e+00	-1.438880e+00	2.958423e-08	7.145622e-03	-1.870369e-03	2.901147e+03	2.760448e+00	0.000000e+00	
5.022241e-02	-3.543267e-02	8.931554e-01	0.000000e+00	0.000000e+00	2.233374e+00	0.000000e+00	8.933496e-01	1.000217e+00	0.000000e+00	-1.519357e+00	2.958534e-08	7.448130e-03	-2.225868e-03	2.849857e+03	2.839627e+00	0.000000e+00	
4.175588e-02	-3.272472e-02	8.873039e-01	0.000000e+00	0.000000e+00	2.218873e+00	0.000000e+00	8.875493e-01	1.000277e+00	0.000000e+00	-1.601988e+00	2.958669e-08	7.757031e-03	-2.638818e-03	2.772857e+03	2.925660e+00	0.000000e+00	
3.444509e-02	-3.006547e-02	8.813578e-01	0.000000e+00	0.000000e+00	2.204182e+00	0.000000e+00	8.816727e-01	1.000357e+00	0.000000e+00	-1.685707e+00	2.958853e-08	8.072118e-03	-3.121291e-03	2.662816e+03	3.020426e+00	0.000000e+00	
2.816724e-02	-2.747033e-02	8.754499e-01	0.000000e+00	0.000000e+00	2.189657e+00	0.000000e+00	8.758627e-01	1.000472e+00	0.000000e+00	-1.768477e+00	2.959112e-08	8.388011e-03	-3.686461e-03	2.510190e+03	3.125528e+00	0.000000e+00	
2.280944e-02	-2.495170e-02	8.698166e-01	0.000000e+00	0.000000e+00	2.175870e+00	0.000000e+00	8.703481e-01	1.000611e+00	0.000000e+00	-1.847039e+00	2.959430e-08	8.679013e-03	-4.340589e-03	2.309920e+03	3.239806e+00	0.000000e+00	
1.826886e-02	-2.251990e-02	8.647746e-01	0.000000e+00	0.000000e+00	2.163592e+00	0.000000e+00	8.654368e-01	1.000766e+00	0.000000e+00	-1.917007e+00	2.959781e-08	8.916632e-03	-5.086802e-03	2.062328e+03	3.362639e+00	0.000000e+00	
1.445220e-02	-2.018403e-02	8.607334e-01	0.000000e+00	0.000000e+00	2.153836e+00	0.000000e+00	8.615346e-01	1.000931e+00	0.000000e+00	-1.972598e+00	2.960157e-08	9.067981e-03	-5.921898e-03	1.771811e+03	3.493580e+00	0.000000e+00	
1.127516e-02	-1.795263e-02	8.582044e-01	0.000000e+00	0.000000e+00	2.147873e+00	0.000000e+00	8.591490e-01	1.001101e+00	0.000000e+00	-2.006583e+00	2.960543e-08	9.094400e-03	-6.830668e-03	1.450220e+03	3.631759e+00	0.000000e+00	
8.660978e-03	-1.583433e-02	8.577394e-01	0.000000e+00	0.000000e+00	2.147064e+00	0.000000e+00	8.588258e-01	1.001267e+00	0.000000e+00	-2.011188e+00	2.960920e-08	8.955924e-03	-7.780870e-03	1.118741e+03	3.775638e+00	0.000000e+00	
6.539262e-03	-1.383810e-02	8.598450e-01	0.000000e+00	0.000000e+00	2.152657e+00	0.000000e+00	8.610627e-01	1.001416e+00	0.000000e+00	-1.979321e+00	2.961260e-08	8.619301e-03	-8.721099e-03	8.078021e+02	3.923102e+00	0.000000e+00	
4.844550e-03	-1.197282e-02	8.648370e-01	0.000000e+00	0.000000e+00	2.165418e+00	0.000000e+00	8.661672e-01	1.001538e+00	0.000000e+00	-1.906600e+00	2.961537e-08	8.069220e-03	-9.583408e-03	5.527042e+02	4.071359e+00	0.000000e+00	
3.515320e-03	-1.024671e-02	8.727061e-01	0.000000e+00	0.000000e+00	2.185311e+00	0.000000e+00	8.741243e-01	1.001625e+00	0.000000e+00	-1.793243e+00	2.961735e-08	7.318413e-03	-1.029322e-02	3.855644e+02	4.217132e+00	0.000000e+00	
2.493434e-03	-8.666020e-03	8.830658e-01	0.000000e+00	0.000000e+00	2.211358e+00	0.000000e+00	8.845434e-01	1.001673e+00	0.000000e+00	-1.644811e+00	2.961845e-08	6.409217e-03	-1.078275e-02	3.282573e+02	4.356791e+00	0.000000e+00	
1.724623e-03	-7.234077e-03	8.952039e-01	0.000000e+00	0.000000e+00	2.241796e+00	0.000000e+00	8.967186e-01	1.001692e+00	0.000000e+00	-1.471362e+00	2.961887e-08	5.408268e-03	-1.100801e-02	3.827511e+02	4.487142e+00	0.000000e+00	
1.159193e-03	-5.950300e-03	9.082486e-01	0.000000e+00	0.000000e+00	2.274487e+00	0.000000e+00	9.097948e-01	1.001702e+00	0.000000e+00	-1.285076e+00	2.961911e-08	4.392751e-03	-1.096069e-02	5.279669e+02	4.606583e+00	0.000000e+00	
7.531893e-04	-4.810177e-03	9.213808e-01	0.000000e+00	0.000000e+00	2.307403e+00	0.000000e+00	9.229612e-01	1.001715e+00	0.000000e+00	-1.097506e+00	2.961940e-08	3.436763e-03	-1.068050e-02	7.286127e+02	4.718715e+00	0.000000e+00	
4.691284e-04	-3.805771e-03	9.339505e-01	0.000000e+00	0.000000e+00	2.338911e+00	0.000000e+00	9.355644e-01	1.001728e+00	0.000000e+00	-9.179593e-01	2.961969e-08	2.595283e-03	-1.024861e-02	9.455030e+02	4.834223e+00	0.000000e+00	
2.762360e-04	-2.926719e-03	9.455126e-01	0.000000e+00	0.000000e+00	2.367898e+00	0.000000e+00	9.471593e-01	1.001742e+00	0.000000e+00	-7.527756e-01	2.962000e-08	1.887246e-03	-9.727388e-03	1.150723e+03	4.960949e+00	0.000000e+00	
1.500786e-04	-2.161300e-03	9.558121e-01	0.000000e+00	0.000000e+00	2.393741e+00	0.000000e+00	9.574963e-01	1.001762e+00	0.000000e+00	-6.055136e-01	2.962046e-08	1.310580e-03	-9.163244e-03	1.324665e+03	5.105440e+00	0.000000e+00	
7.180327e-05	-1.497377e-03	9.647947e-01	0.000000e+00	0.000000e+00	2.416329e+00	0.000000e+00	9.665316e-01	1.001800e+00	0.000000e+00	-4.767955e-01	2.962133e-08	8.521374e-04	-8.587531e-03	1.453746e+03	5.273305e+00	0.000000e+00	
2.721276e-05	-9.231024e-04	9.725882e-01	0.000000e+00	0.000000e+00	2.435998e+00	0.000000e+00	9.743994e-01	1.001862e+00	0.000000e+00	-3.647100e-01	2.962274e-08	4.943664e-04	-8.016723e-03	1.529708e+03	5.468700e+00	0.000000e+00	
5.818606e-06	-4.273592e-04	9.784675e-01	0.000000e+00	0.000000e+00	2.450755e+00	0.000000e+00	9.803019e-01	1.001875e+00	0.000000e+00	-2.806214e-01	2.962303e-08	2.209782e-04	-7.495951e-03	1.557966e+03	5.706719e+00	0.000000e+00	
0.000000e+00	0.000000e+00	9.847833e-01	0.000000e+00	0.000000e+00	2.466482e+00	0.000000e+00	9.865927e-01	1.001837e+00	0.000000e+00	-1.910029e-01	2.962218e-08	-1.816769e-15	-6.936623e-03	1.575708e+03	5.931599e+00	0.000000e+00	
5.818606e-06	4.273592e-04	9.915459e-01	0.000000e+00	0.000000e+00	2.482648e+00	0.000000e+00	9.930591e-01	1.001526e+00	0.000000e+00	-9.888047e-02	2.961510e-08	-2.109012e-04	-7.154123e-03	1.938955e+03	5.613720e+00	0.000000e+00	
2.721276e-05	9.231024e-04	9.982624e-01	0.000000e+00	0.000000e+00	2.498116e+00	0.000000e+00	9.992463e-01	1.000986e+00	0.000000e+00	-1.073694e-02	2.960281e-08	-4.391207e-04	-7.120850e-03	2.386824e+03	5.225185e+00	0.000000e+00	
7.180327e-05	1.497377e-03	1.005928e+00	0.000000e+00	0.000000e+00	2.516024e+00	0.000000e+00	1.006410e+00	1.000479e+00	0.000000e+00	9.131229e-02	2.959129e-08	-6.883789e-04	-6.937232e-03	2.833948e+03	4.844495e+00	0.000000e+00	
1.500786e-04	2.161300e-03	1.014103e+00	0.000000e+00	0.000000e+00	2.535481e+00	0.000000e+00	1.014192e+00	1.000088e+00	0.000000e+00	2.021848e-01	2.958239e-08	-9.457082e-04	-6.612152e-03	3.257070e+03	4.472943e+00	0.000000e+00	
2.762360e-04	2.926719e-03	1.022926e+00	0.000000e+00	0.000000e+00	2.556728e+00	0.000000e+00	1.022691e+00	9.997699e-01	0.000000e+00	3.232610e-01	2.957517e-08	-1.192895e-03	-6.148511e-03	3.643265e+03	4.108639e+00	0.000000e+00	
4.691284e-04	3.805771e-03	1.032179e+00	0.000000e+00	0.000000e+00	2.579193e+00	0.000000e+00	1.031677e+00	9.995143e-01	0.000000e+00	4.512801e-01	2.956935e-08	-1.403254e-03	-5.541363e-03	3.976811e+03	3.743319e+00	0.000000e+00	
7.531893e-04	4.810177e-03	1.041556e+00	0.000000e+00	0.000000e+00	2.602157e+00	0.000000e+00	1.040863e+00	9.993347e-01	0.000000e+00	5.821355e-01	2.956526e-08	-1.543999e-03	-4.798319e-03	4.235889e+03	3.368904e+00	0.000000e+00	
1.159193e-03	5.950300e-03	1.050592e+00	0.000000e+00	0.000000e+00	2.624466e+00	0.000000e+00	1.049786e+00	9.992329e-01	0.000000e+00	7.092644e-01	2.956295e-08	-1.583052e-03	-3.949995e-03	4.407095e+03	2.979869e+00	0.000000e+00	
1.724623e-03	7.234077e-03	1.058739e+00	0.000000e+00	0.000000e+00	2.644691e+00	0.000000e+00	1.057876e+00	9.991848e-01	0.000000e+00	8.245131e-01	2.956185e-08	-1.495524e-03	-3.043995e-03	4.487560e+03	2.571034e+00	0.000000e+00	
2.493434e-03	8.666020e-03	1.065403e+00	0.000000e+00	0.000000e+00	2.661295e+00	0.000000e+00	1.064518e+00	9.991694e-01	0.000000e+00	9.191316e-01	2.956150e-08	-1.271276e-03	-2.138773e-03	4.479910e+03	2.135406e+00	0.000000e+00	
3.515320e-03	1.024671e-02	1.070086e+00	0.000000e+00	0.000000e+00	2.672997e+00	0.000000e+00	1.069199e+00	9.991714e-01	0.000000e+00	9.858168e-01	2.956155e-08	-9.203633e-04	-1.294475e-03	4.393305e+03	1.659139e+00	0.000000e+00	
4.844550e-03	1.197282e-02	1.072511e+00	0.000000e+00	0.000000e+00	2.679082e+00	0.000000e+00	1.071633e+00	9.991812e-01	0.000000e+00	1.020494e+00	2.956177e-08	-4.723501e-04	-5.609865e-04	4.243279e+03	1.098946e+00	0.000000e+00	
6.539262e-03	1.383810e-02	1.072700e+00	0.000000e+00	0.000000e+00	2.679591e+00	0.000000e+00	1.071836e+00	9.991951e-01	0.000000e+00	1.023392e+00	2.956209e-08	3.122961e-05	3.159845e-05	4.049779e+03	2.642089e-01	0.000000e+00	
8.660978e-03	1.583433e-02	1.070905e+00	0.000000e+00	0.000000e+00	2.675154e+00	0.000000e+00	1.070061e+00	9.992123e-01	0.000000e+00	9.981049e-01	2.956248e-08	5.474230e-04	4.755989e-04	3.836580e+03	1.044673e+00	0.000000e+00	
1.127516e-02	1.795263e-02	1.067531e+00	0.000000e+00	0.000000e+00	2.666783e+00	0.000000e+00	1.066713e+00	9.992343e-01	0.000000e+00	9.504067e-01	2.956298e-08	1.042527e-03	7.830266e-04	3.629438e+03	1.373383e+00	0.000000e+00	
1.445220e-02	2.018403e-02	1.063034e+00	0.000000e+00	0.000000e+00	2.655635e+00	0.000000e+00	1.062254e+00	9.992665e-01	0.000000e+00	8.868778e-01	2.956371e-08	1.498383e-03	9.785280e-04	3.453682e+03	1.580235e+00	0.000000e+00	
1.826886e-02	2.251990e-02	1.057828e+00	0.000000e+00	0.000000e+00	2.642772e+00	0.000000e+00	1.057109e+00	9.993198e-01	0.000000e+00	8.135796e-01	2.956492e-08	1.912884e-03	1.091271e-03	3.329692e+03	1.724500e+00	0.000000e+00	
2.280944e-02	2.495170e-02	1.052251e+00	0.000000e+00	0.000000e+00	2.629057e+00	0.000000e+00	1.051623e+00	9.994036e-01	0.000000e+00	7.354276e-01	2.956683e-08	2.293214e-03	1.146893e-03	3.263964e+03	1.833391e+00	0.000000e+00	
2.816724e-02	2.747033e-02	1.046568e+00	0.000000e+00	0.000000e+00	2.615128e+00	0.000000e+00	1.046051e+00	9.995062e-01	0.000000e+00	6.560524e-01	2.956916e-08	2.641971e-03	1.161125e-03	3.240521e+03	1.919325e+00	0.000000e+00	
3.444509e-02	3.006547e-02	1.040991e+00	0.000000e+00	0.000000e+00	2.601431e+00	0.000000e+00	1.040573e+00	9.995979e-01	0.000000e+00	5.780021e-01	2.957125e-08	2.953397e-03	1.142007e-03	3.233821e+03	1.986719e+00	0.000000e+00	
4.175588e-02	3.272472e-02	1.035653e+00	0.000000e+00	0.000000e+00	2.588264e+00	0.000000e+00	1.035306e+00	9.996651e-01	0.000000e+00	5.029703e-01	2.957278e-08	3.221379e-03	1.095862e-03	3.224640e+03	2.037849e+00	0.000000e+00	
5.022241e-02	3.543267e-02	1.030624e+00	0.000000e+00	0.000000e+00	2.575817e+00	0.000000e+00	1.030327e+00	9.997114e-01	0.000000e+00	4.320387e-01	2.957383e-08	3.443647e-03	1.029131e-03	3.204330e+03	2.074926e+00	0.000000e+00	
5.997667e-02	3.816999e-02	1.025943e+00	0.000000e+00	0.000000e+00	2.564200e+00	0.000000e+00	1.025680e+00	9.997439e-01	0.000000e+00	3.658390e-01	2.957457e-08	3.621978e-03	9.480537e-04	3.172467e+03	2.100355e+00	0.000000e+00	
7.115831e-02	4.091264e-02	1.021625e+00	0.000000e+00	0.000000e+00	2.553469e+00	0.000000e+00	1.021388e+00	9.997679e-01	0.000000e+00	3.046912e-01	2.957512e-08	3.760457e-03	8.579729e-04	3.132177e+03	2.116421e+00	0.000000e+00	
8.391231e-02	4.363107e-02	1.017677e+00	0.000000e+00	0.000000e+00	2.543649e+00	0.000000e+00	1.017460e+00	9.997859e-01	0.000000e+00	2.487307e-01	2.957553e-08	3.863934e-03	7.630784e-04	3.087144e+03	2.125063e+00	0.000000e+00	
9.838552e-02	4.628967e-02	1.014102e+00	0.000000e+00	0.000000e+00	2.534748e+00	0.000000e+00	1.013899e+00	9.997996e-01	0.000000e+00	1.980081e-01	2.957584e-08	3.937194e-03	6.664986e-04	3.040399e+03	2.127844e+00	0.000000e+00	
1.147221e-01	4.884662e-02	1.010898e+00	0.000000e+00	0.000000e+00	2.526764e+00	0.000000e+00	1.010705e+00	9.998099e-01	0.000000e+00	1.525111e-01	2.957607e-08	3.984567e-03	5.705128e-04	2.994042e+03	2.125980e+00	0.000000e+00	
1.330575e-01	5.125403e-02	1.008058e+00	0.000000e+00	0.000000e+00	2.519685e+00	0.000000e+00	1.007874e+00	9.998173e-01	0.000000e+00	1.121735e-01	2.957624e-08	4.009768e-03	4.767695e-04	2.949354e+03	2.120391e+00	0.000000e+00	
1.535115e-01	5.345876e-02	1.005578e+00	0.000000e+00	0.000000e+00	2.513499e+00	0.000000e+00	1.005400e+00	9.998225e-01	0.000000e+00	7.692493e-02	2.957636e-08	4.015952e-03	3.864845e-04	2.907064e+03	2.111773e+00	0.000000e+00	
1.761797e-01	5.540400e-02	1.003452e+00	0.000000e+00	0.000000e+00	2.508193e+00	0.000000e+00	1.003277e+00	9.998258e-01	0.000000e+00	4.668939e-02	2.957644e-08	4.005843e-03	3.005850e-04	2.867526e+03	2.100675e+00	0.000000e+00	
2.011248e-01	5.703151e-02	1.001668e+00	0.000000e+00	0.000000e+00	2.503739e+00	0.000000e+00	1.001496e+00	9.998276e-01	0.000000e+00	2.130889e-02	2.957648e-08	3.981734e-03	2.197926e-04	2.830768e+03	2.087507e+00	0.000000e+00	
2.283666e-01	5.828472e-02	1.000216e+00	0.000000e+00	0.000000e+00	2.500111e+00	0.000000e+00	1.000044e+00	9.998280e-01	0.000000e+00	6.300031e-04	2.957649e-08	3.945738e-03	1.446863e-04	2.796726e+03	2.072628e+00	0.000000e+00	
2.578733e-01	5.911242e-02	9.990788e-01	0.000000e+00	0.000000e+00	2.497265e+00	0.000000e+00	9.989062e-01	9.998272e-01	0.000000e+00	-1.558274e-02	2.957647e-08	3.899816e-03	7.571328e-05	2.765211e+03	2.056351e+00	0.000000e+00	
2.895540e-01	5.947265e-02	9.982351e-01	0.000000e+00	0.000000e+00	2.495152e+00	0.000000e+00	9.980609e-01	9.998255e-01	0.000000e+00	-2.762429e-02	2.957643e-08	3.845881e-03	1.318499e-05	2.736009e+03	2.038984e+00	0.000000e+00	
3.232528e-01	5.933656e-02	9.976594e-01	0.000000e+00	0.000000e+00	2.493707e+00	0.000000e+00	9.974829e-01	9.998231e-01	0.000000e+00	-3.585872e-02	2.957637e-08	3.785803e-03	-4.274069e-05	2.708897e+03	2.020832e+00	0.000000e+00	
3.587470e-01	5.869148e-02	9.973232e-01	0.000000e+00	0.000000e+00	2.492859e+00	0.000000e+00	9.971437e-01	9.998200e-01	0.000000e+00	-4.069169e-02	2.957630e-08	3.721428e-03	-9.207618e-05	2.683689e+03	2.002208e+00	0.000000e+00	
3.957488e-01	5.754285e-02	9.971927e-01	0.000000e+00	0.000000e+00	2.492525e+00	0.000000e+00	9.970098e-01	9.998166e-01	0.000000e+00	-4.259841e-02	2.957623e-08	3.654447e-03	-1.350090e-04	2.660192e+03	1.983410e+00	0.000000e+00	
4.339121e-01	5.591460e-02	9.972357e-01	0.000000e+00	0.000000e+00	2.492623e+00	0.000000e+00	9.970492e-01	9.998131e-01	0.000000e+00	-4.203708e-02	2.957615e-08	3.586419e-03	-1.718924e-04	2.638289e+03	1.964725e+00	0.000000e+00	
4.728433e-01	5.384781e-02	9.974185e-01	0.000000e+00	0.000000e+00	2.493071e+00	0.000000e+00	9.972285e-01	9.998095e-01	0.000000e+00	-3.948381e-02	2.957606e-08	3.518623e-03	-2.032158e-04	2.617861e+03	1.946396e+00	0.000000e+00	
5.121166e-01	5.139795e-02	9.977123e-01	0.000000e+00	0.000000e+00	2.493797e+00	0.000000e+00	9.975186e-01	9.998059e-01	0.000000e+00	-3.535000e-02	2.957598e-08	3.452084e-03	-2.295678e-04	2.598861e+03	1.928629e+00	0.000000e+00	
5.512916e-01	4.863091e-02	9.980906e-01	0.000000e+00	0.000000e+00	2.494734e+00	0.000000e+00	9.978935e-01	9.998025e-01	0.000000e+00	-3.000889e-02	2.957591e-08	3.387494e-03	-2.515860e-04	2.581246e+03	1.911566e+00	0.000000e+00	
5.899328e-01	4.561861e-02	9.985343e-01	0.000000e+00	0.000000e+00	2.495835e+00	0.000000e+00	9.983339e-01	9.997993e-01	0.000000e+00	-2.373490e-02	2.957583e-08	3.325264e-03	-2.699132e-04	2.565022e+03	1.895299e+00	0.000000e+00	
6.276283e-01	4.243463e-02	9.990274e-01	0.000000e+00	0.000000e+00	2.497060e+00	0.000000e+00	9.988238e-01	9.997962e-01	0.000000e+00	-1.675588e-02	2.957576e-08	3.265471e-03	-2.851482e-04	2.550154e+03	1.879844e+00	0.000000e+00	
6.640066e-01	3.915032e-02	9.995604e-01	0.000000e+00	0.000000e+00	2.498384e+00	0.000000e+00	9.993537e-01	9.997932e-01	0.000000e+00	-9.207279e-03	2.957569e-08	3.207947e-03	-2.978183e-04	2.536618e+03	1.865165e+00	0.000000e+00	
6.987499e-01	3.583186e-02	1.000127e+00	0.000000e+00	0.000000e+00	2.499792e+00	0.000000e+00	9.999168e-01	9.997901e-01	0.000000e+00	-1.185811e-03	2.957562e-08	3.152318e-03	-3.083580e-04	2.524361e+03	1.851176e+00	0.000000e+00	
7.316032e-01	3.253806e-02	1.000724e+00	0.000000e+00	0.000000e+00	2.501276e+00	0.000000e+00	1.000511e+00	9.997869e-01	0.000000e+00	7.273462e-03	2.957555e-08	3.098121e-03	-3.171079e-04	2.513359e+03	1.837771e+00	0.000000e+00	
7.623778e-01	2.931924e-02	1.001351e+00	0.000000e+00	0.000000e+00	2.502835e+00	0.000000e+00	1.001134e+00	9.997834e-01	0.000000e+00	1.615793e-02	2.957547e-08	3.044848e-03	-3.243191e-04	2.503599e+03	1.824835e+00	0.000000e+00	
7.909518e-01	2.621660e-02	1.002009e+00	0.000000e+00	0.000000e+00	2.504471e+00	0.000000e+00	1.001788e+00	9.997796e-01	0.000000e+00	2.547869e-02	2.957538e-08	2.991997e-03	-3.301658e-04	2.495089e+03	1.812257e+00	0.000000e+00	
8.172658e-01	2.326236e-02	1.002700e+00	0.000000e+00	0.000000e+00	2.506186e+00	0.000000e+00	1.002474e+00	9.997753e-01	0.000000e+00	3.524856e-02	2.957529e-08	2.939087e-03	-3.347597e-04	2.487845e+03	1.799934e+00	0.000000e+00	
8.413160e-01	2.048016e-02	1.003423e+00	0.000000e+00	0.000000e+00	2.507982e+00	0.000000e+00	1.003193e+00	9.997706e-01	0.000000e+00	4.548272e-02	2.957518e-08	2.885686e-03	-3.381678e-04	2.481899e+03	1.787778e+00	0.000000e+00	
8.631457e-01	1.788578e-02	1.004179e+00	0.000000e+00	0.000000e+00	2.509859e+00	0.000000e+00	1.003944e+00	9.997652e-01	0.000000e+00	5.618278e-02	2.957506e-08	2.831403e-03	-3.404268e-04	2.477290e+03	1.775715e+00	0.000000e+00	
8.828360e-01	1.548810e-02	1.004970e+00	0.000000e+00	0.000000e+00	2.511819e+00	0.000000e+00	1.004728e+00	9.997592e-01	0.000000e+00	6.735019e-02	2.957492e-08	2.775916e-03	-3.415592e-04	2.474095e+03	1.763696e+00	0.000000e+00	
9.004963e-01	1.329003e-02	1.005792e+00	0.000000e+00	0.000000e+00	2.513857e+00	0.000000e+00	1.005543e+00	9.997523e-01	0.000000e+00	7.896515e-02	2.957476e-08	2.718946e-03	-3.415802e-04	2.472421e+03	1.751689e+00	0.000000e+00	
9.162555e-01	1.128962e-02	1.006646e+00	0.000000e+00	0.000000e+00	2.515971e+00	0.000000e+00	1.006389e+00	9.997444e-01	0.000000e+00	9.101258e-02	2.957458e-08	2.660282e-03	-3.405087e-04	2.472497e+03	1.739690e+00	0.000000e+00	
9.302548e-01	9.481022e-03	1.007529e+00	0.000000e+00	0.000000e+00	2.518155e+00	0.000000e+00	1.007262e+00	9.997352e-01	0.000000e+00	1.034561e-01	2.957437e-08	2.599792e-03	-3.383732e-04	2.474773e+03	1.727725e+00	0.000000e+00	
9.426407e-01	7.855481e-03	1.008442e+00	0.000000e+00	0.000000e+00	2.520410e+00	0.000000e+00	1.008164e+00	9.997241e-01	0.000000e+00	1.163031e-01	2.957412e-08	2.537628e-03	-3.352419e-04	2.480294e+03	1.715928e+00	0.000000e+00	
9.535602e-01	6.402178e-03	1.009382e+00	0.000000e+00	0.000000e+00	2.522724e+00	0.000000e+00	1.009089e+00	9.997104e-01	0.000000e+00	1.294898e-01	2.957381e-08	2.474419e-03	-3.312512e-04	2.491073e+03	1.704610e+00	0.000000e+00	
9.631568e-01	5.108981e-03	1.010361e+00	0.000000e+00	0.000000e+00	2.525123e+00	0.000000e+00	1.010049e+00	9.996915e-01	0.000000e+00	1.431641e-01	2.957338e-08	2.412266e-03	-3.267436e-04	2.511539e+03	1.694645e+00	0.000000e+00	
9.715675e-01	3.963073e-03	1.011371e+00	0.000000e+00	0.000000e+00	2.527566e+00	0.000000e+00	1.011026e+00	9.996590e-01	0.000000e+00	1.570825e-01	2.957264e-08	2.355732e-03	-3.224106e-04	2.551045e+03	1.687859e+00	0.000000e+00	
9.789211e-01	2.951446e-03	1.012485e+00	0.000000e+00	0.000000e+00	2.530163e+00	0.000000e+00	1.012065e+00	9.995850e-01	0.000000e+00	1.718838e-01	2.957096e-08	2.318740e-03	-3.202572e-04	2.636320e+03	1.689747e+00	0.000000e+00	
9.853369e-01	2.061293e-03	1.013647e+00	0.000000e+00	0.000000e+00	2.532645e+00	0.000000e+00	1.013058e+00	9.994193e-01	0.000000e+00	1.860266e-01	2.956719e-08	2.340370e-03	-3.258453e-04	2.839991e+03	1.715336e+00	0.000000e+00	
9.909241e-01	1.280290e-03	1.015399e+00	0.000000e+00	0.000000e+00	2.536332e+00	0.000000e+00	1.014533e+00	9.991475e-01	0.000000e+00	2.070372e-01	2.956100e-08	2.549315e-03	-3.574361e-04	3.359738e+03	1.812244e+00	0.000000e+00	
9.957821e-01	5.967887e-04	1.015680e+00	0.000000e+00	0.000000e+00	2.537009e+00	0.000000e+00	1.014804e+00	9.991376e-01	0.000000e+00	2.108944e-01	2.956078e-08	3.281606e-03	-4.629018e-04	4.646832e+03	2.082834e+00	0.000000e+00	
1	2
2	3
58	59
59	60
60	61
61	62
62	63
63	64
64	65
65	66
66	67
67	68
68	69
69	70
70	71
71	72
72	73
73	74
74	75
75	76
76	77
77	78
78	79
79	80
80	81
81	82
82	83
83	84
84	85
85	86
86	87
87	88
88	89
89	90
90	91
91	92
92	93
93	94
94	95
95	96
96	97
97	98
98	99
99	100
100	101
101	102
102	103
103	104
104	105
105	106
106	107
107	108
108	109
109	110
110	111
111	112
112	113
113	114
114	115
115	116
116	117
117	118
118	119
119	120
120	121
3	4
4	5
5	6
6	7
7	8
8	9
9	10
10	11
11	12
12	13
13	14
14	15
15	16
16	17
17	18
18	19
19	20
20	21
21	22
22	23
23	24
24	25
25	26
26	27
27	28
28	29
29	30
30	31
31	32
32	33
33	34
34	35
35	36
36	37
37	38
38	39
39	40
40	41
41	42
42	43
43	44
44	45
45	46
46	47
47	48
48	49
49	50
50	51
51	52
52	53
53	54
54	55
55	56
56	57
57	58
121	122
122	123
123	124
124	125
125	126
126	127
127	128
128	1
