TITLE = "Visualization of the solution"
VARIABLES = "x","y","Density","Momentum_x","Momentum_y","Energy","Nu_Tilde","Pressure","Temperature","Mach","Pressure_Coefficient","Laminar_Viscosity","Skin_Friction_Coefficient_x","Skin_Friction_Coefficient_y","Heat_Flux","Y_Plus","Eddy_Viscosity"
ZONE NODES= 128, ELEMENTS= 128, DATAPACKING=POINT, ZONETYPE=FELINESEG
1.000000e+00	5.352203e-08	1.016364e+00	0.000000e+00	0.000000e+00	2.542499e+00	0.000000e+00	1.016999e+00	1.000625e+00	0.000000e+00	2.421771e-01	2.959462e-08	1.280632e-14	5.144901e-05	3.470951e+02	2.847045e+02	0.000000e+00	
9.957821e-01	-5.967887e-04	1.015947e+00	0.000000e+00	0.000000e+00	2.537689e+00	0.000000e+00	1.015076e+00	9.991419e-01	0.000000e+00	2.147704e-01	2.956087e-08	2.625730e-03	3.704153e-04	4.378089e+03	1.863342e+00	0.000000e+00	
9.909241e-01	-1.280290e-03	1.015328e+00	0.000000e+00	0.000000e+00	2.536207e+00	0.000000e+00	1.014483e+00	9.991673e-01	0.000000e+00	2.063218e-01	2.956145e-08	1.940844e-03	2.721233e-04	3.133042e+03	1.581171e+00	0.000000e+00	
9.853369e-01	-2.061293e-03	1.013587e+00	0.000000e+00	0.000000e+00	2.532509e+00	0.000000e+00	1.013003e+00	9.994244e-01	0.000000e+00	1.852493e-01	2.956730e-08	1.751028e-03	2.437923e-04	2.626003e+03	1.483676e+00	0.000000e+00	
9.789211e-01	-2.951446e-03	1.012244e+00	0.000000e+00	0.000000e+00	2.529558e+00	0.000000e+00	1.011823e+00	9.995844e-01	0.000000e+00	1.684371e-01	2.957095e-08	1.744866e-03	2.409955e-04	2.428397e+03	1.465633e+00	0.000000e+00	
9.715675e-01	-3.963073e-03	1.010916e+00	0.000000e+00	0.000000e+00	2.526427e+00	0.000000e+00	1.010571e+00	9.996585e-01	0.000000e+00	1.505927e-01	2.957263e-08	1.802360e-03	2.466748e-04	2.352289e+03	1.476034e+00	0.000000e+00	
9.631568e-01	-5.108981e-03	1.009612e+00	0.000000e+00	0.000000e+00	2.523255e+00	0.000000e+00	1.009302e+00	9.996933e-01	0.000000e+00	1.325158e-01	2.957342e-08	1.882915e-03	2.550425e-04	2.322971e+03	1.496648e+00	0.000000e+00	
9.535602e-01	-6.402178e-03	1.008290e+00	0.000000e+00	0.000000e+00	2.520001e+00	0.000000e+00	1.008000e+00	9.997129e-01	0.000000e+00	1.139741e-01	2.957387e-08	1.972289e-03	2.640309e-04	2.313288e+03	1.521030e+00	0.000000e+00	
9.426407e-01	-7.855481e-03	1.006951e+00	0.000000e+00	0.000000e+00	2.516692e+00	0.000000e+00	1.006677e+00	9.997273e-01	0.000000e+00	9.511756e-02	2.957420e-08	2.064941e-03	2.727960e-04	2.312788e+03	1.546737e+00	0.000000e+00	
9.302548e-01	-9.481022e-03	1.005591e+00	0.000000e+00	0.000000e+00	2.513322e+00	0.000000e+00	1.005329e+00	9.997392e-01	0.000000e+00	7.591728e-02	2.957447e-08	2.158378e-03	2.809215e-04	2.317250e+03	1.572714e+00	0.000000e+00	
9.162555e-01	-1.128962e-02	1.004212e+00	0.000000e+00	0.000000e+00	2.509902e+00	0.000000e+00	1.003961e+00	9.997495e-01	0.000000e+00	5.642522e-02	2.957470e-08	2.251378e-03	2.881701e-04	2.324554e+03	1.598472e+00	0.000000e+00	
9.004963e-01	-1.329003e-02	1.002816e+00	0.000000e+00	0.000000e+00	2.506436e+00	0.000000e+00	1.002574e+00	9.997585e-01	0.000000e+00	3.667266e-02	2.957491e-08	2.343352e-03	2.943944e-04	2.333627e+03	1.623791e+00	0.000000e+00	
8.828360e-01	-1.548810e-02	1.001406e+00	0.000000e+00	0.000000e+00	2.502930e+00	0.000000e+00	1.001172e+00	9.997666e-01	0.000000e+00	1.669720e-02	2.957509e-08	2.434049e-03	2.994945e-04	2.343916e+03	1.648585e+00	0.000000e+00	
8.631457e-01	-1.788578e-02	9.999816e-01	0.000000e+00	0.000000e+00	2.499389e+00	0.000000e+00	9.997556e-01	9.997740e-01	0.000000e+00	-3.482070e-03	2.957526e-08	2.523430e-03	3.033984e-04	2.355161e+03	1.672844e+00	0.000000e+00	
8.413160e-01	-2.048016e-02	9.985442e-01	0.000000e+00	0.000000e+00	2.495813e+00	0.000000e+00	9.983252e-01	9.997807e-01	0.000000e+00	-2.385920e-02	2.957541e-08	2.611620e-03	3.060505e-04	2.367244e+03	1.696611e+00	0.000000e+00	
8.172658e-01	-2.326236e-02	9.970907e-01	0.000000e+00	0.000000e+00	2.492196e+00	0.000000e+00	9.968782e-01	9.997870e-01	0.000000e+00	-4.447306e-02	2.957555e-08	2.698941e-03	3.074073e-04	2.380158e+03	1.719987e+00	0.000000e+00	
7.909518e-01	-2.621660e-02	9.956175e-01	0.000000e+00	0.000000e+00	2.488528e+00	0.000000e+00	9.954112e-01	9.997928e-01	0.000000e+00	-6.537265e-02	2.957568e-08	2.785887e-03	3.074217e-04	2.393939e+03	1.743119e+00	0.000000e+00	
7.623778e-01	-2.931924e-02	9.941185e-01	0.000000e+00	0.000000e+00	2.484795e+00	0.000000e+00	9.939179e-01	9.997982e-01	0.000000e+00	-8.664708e-02	2.957581e-08	2.873138e-03	3.060296e-04	2.408688e+03	1.766201e+00	0.000000e+00	
7.316032e-01	-3.253806e-02	9.925863e-01	0.000000e+00	0.000000e+00	2.480978e+00	0.000000e+00	9.923911e-01	9.998033e-01	0.000000e+00	-1.083981e-01	2.957592e-08	2.961535e-03	3.031277e-04	2.424536e+03	1.789461e+00	0.000000e+00	
6.987499e-01	-3.583186e-02	9.910127e-01	0.000000e+00	0.000000e+00	2.477056e+00	0.000000e+00	9.908226e-01	9.998081e-01	0.000000e+00	-1.307430e-01	2.957603e-08	3.052059e-03	2.985507e-04	2.441645e+03	1.813156e+00	0.000000e+00	
6.640066e-01	-3.915032e-02	9.893902e-01	0.000000e+00	0.000000e+00	2.473013e+00	0.000000e+00	9.892051e-01	9.998129e-01	0.000000e+00	-1.537863e-01	2.957614e-08	3.145747e-03	2.920438e-04	2.460163e+03	1.837546e+00	0.000000e+00	
6.276283e-01	-4.243463e-02	9.877113e-01	0.000000e+00	0.000000e+00	2.468828e+00	0.000000e+00	9.875311e-01	9.998175e-01	0.000000e+00	-1.776342e-01	2.957625e-08	3.243633e-03	2.832413e-04	2.480228e+03	1.862876e+00	0.000000e+00	
5.899328e-01	-4.561861e-02	9.859735e-01	0.000000e+00	0.000000e+00	2.464495e+00	0.000000e+00	9.857981e-01	9.998221e-01	0.000000e+00	-2.023226e-01	2.957635e-08	3.346598e-03	2.716449e-04	2.501882e+03	1.889339e+00	0.000000e+00	
5.512916e-01	-4.863091e-02	9.841753e-01	0.000000e+00	0.000000e+00	2.460012e+00	0.000000e+00	9.840049e-01	9.998268e-01	0.000000e+00	-2.278691e-01	2.957646e-08	3.455357e-03	2.566262e-04	2.525140e+03	1.917077e+00	0.000000e+00	
5.121166e-01	-5.139795e-02	9.823233e-01	0.000000e+00	0.000000e+00	2.455395e+00	0.000000e+00	9.821579e-01	9.998315e-01	0.000000e+00	-2.541817e-01	2.957657e-08	3.570306e-03	2.374296e-04	2.549889e+03	1.946152e+00	0.000000e+00	
4.728433e-01	-5.384781e-02	9.804258e-01	0.000000e+00	0.000000e+00	2.450664e+00	0.000000e+00	9.802655e-01	9.998364e-01	0.000000e+00	-2.811412e-01	2.957668e-08	3.691605e-03	2.132062e-04	2.576025e+03	1.976569e+00	0.000000e+00	
4.339121e-01	-5.591460e-02	9.785000e-01	0.000000e+00	0.000000e+00	2.445863e+00	0.000000e+00	9.783450e-01	9.998416e-01	0.000000e+00	-3.084996e-01	2.957680e-08	3.819035e-03	1.830414e-04	2.603322e+03	2.008260e+00	0.000000e+00	
3.957488e-01	-5.754285e-02	9.765649e-01	0.000000e+00	0.000000e+00	2.441040e+00	0.000000e+00	9.764159e-01	9.998475e-01	0.000000e+00	-3.359819e-01	2.957693e-08	3.952027e-03	1.460028e-04	2.631527e+03	2.041090e+00	0.000000e+00	
3.587470e-01	-5.869148e-02	9.746471e-01	0.000000e+00	0.000000e+00	2.436262e+00	0.000000e+00	9.745048e-01	9.998540e-01	0.000000e+00	-3.632083e-01	2.957708e-08	4.089984e-03	1.011950e-04	2.660554e+03	2.074959e+00	0.000000e+00	
3.232528e-01	-5.933656e-02	9.727724e-01	0.000000e+00	0.000000e+00	2.431594e+00	0.000000e+00	9.726375e-01	9.998613e-01	0.000000e+00	-3.898101e-01	2.957724e-08	4.232284e-03	4.778133e-05	2.690417e+03	2.109795e+00	0.000000e+00	
2.895540e-01	-5.947265e-02	9.709715e-01	0.000000e+00	0.000000e+00	2.427112e+00	0.000000e+00	9.708449e-01	9.998696e-01	0.000000e+00	-4.153482e-01	2.957743e-08	4.378648e-03	-1.501149e-05	2.721411e+03	2.145646e+00	0.000000e+00	
2.578733e-01	-5.911242e-02	9.692691e-01	0.000000e+00	0.000000e+00	2.422880e+00	0.000000e+00	9.691521e-01	9.998792e-01	0.000000e+00	-4.394639e-01	2.957765e-08	4.528789e-03	-8.792452e-05	2.753791e+03	2.182585e+00	0.000000e+00	
2.283666e-01	-5.828472e-02	9.676910e-01	0.000000e+00	0.000000e+00	2.418962e+00	0.000000e+00	9.675850e-01	9.998904e-01	0.000000e+00	-4.617892e-01	2.957791e-08	4.682266e-03	-1.716941e-04	2.787707e+03	2.220679e+00	0.000000e+00	
2.011248e-01	-5.703151e-02	9.662573e-01	0.000000e+00	0.000000e+00	2.415409e+00	0.000000e+00	9.661637e-01	9.999032e-01	0.000000e+00	-4.820371e-01	2.957820e-08	4.838191e-03	-2.670692e-04	2.823056e+03	2.259917e+00	0.000000e+00	
1.761797e-01	-5.540400e-02	9.649854e-01	0.000000e+00	0.000000e+00	2.412263e+00	0.000000e+00	9.649051e-01	9.999168e-01	0.000000e+00	-4.999672e-01	2.957851e-08	4.995330e-03	-3.748328e-04	2.859585e+03	2.300253e+00	0.000000e+00	
1.535115e-01	-5.345876e-02	9.638891e-01	0.000000e+00	0.000000e+00	2.409557e+00	0.000000e+00	9.638226e-01	9.999310e-01	0.000000e+00	-5.153883e-01	2.957883e-08	5.152424e-03	-4.958555e-04	2.896981e+03	2.341683e+00	0.000000e+00	
1.330575e-01	-5.125403e-02	9.629815e-01	0.000000e+00	0.000000e+00	2.407323e+00	0.000000e+00	9.629291e-01	9.999455e-01	0.000000e+00	-5.281178e-01	2.957916e-08	5.308313e-03	-6.311691e-04	2.934957e+03	2.384283e+00	0.000000e+00	
1.147221e-01	-4.884662e-02	9.622727e-01	0.000000e+00	0.000000e+00	2.405587e+00	0.000000e+00	9.622346e-01	9.999604e-01	0.000000e+00	-5.380111e-01	2.957950e-08	5.461732e-03	-7.820143e-04	2.973146e+03	2.428170e+00	0.000000e+00	
9.838552e-02	-4.628967e-02	9.617780e-01	0.000000e+00	0.000000e+00	2.404386e+00	0.000000e+00	9.617544e-01	9.999755e-01	0.000000e+00	-5.448523e-01	2.957984e-08	5.611255e-03	-9.498882e-04	3.011187e+03	2.473513e+00	0.000000e+00	
8.391231e-02	-4.363107e-02	9.615174e-01	0.000000e+00	0.000000e+00	2.403771e+00	0.000000e+00	9.615086e-01	9.999908e-01	0.000000e+00	-5.483545e-01	2.958019e-08	5.754931e-03	-1.136526e-03	3.048674e+03	2.520473e+00	0.000000e+00	
7.115831e-02	-4.091264e-02	9.615175e-01	0.000000e+00	0.000000e+00	2.403809e+00	0.000000e+00	9.615235e-01	1.000006e+00	0.000000e+00	-5.481415e-01	2.958054e-08	5.889973e-03	-1.343836e-03	3.085135e+03	2.569162e+00	0.000000e+00	
5.997667e-02	-3.816999e-02	9.618165e-01	0.000000e+00	0.000000e+00	2.404593e+00	0.000000e+00	9.618372e-01	1.000022e+00	0.000000e+00	-5.436720e-01	2.958089e-08	6.012485e-03	-1.573769e-03	3.120123e+03	2.619623e+00	0.000000e+00	
5.022241e-02	-3.543267e-02	9.624675e-01	0.000000e+00	0.000000e+00	2.406256e+00	0.000000e+00	9.625022e-01	1.000036e+00	0.000000e+00	-5.341983e-01	2.958122e-08	6.117113e-03	-1.828095e-03	3.153318e+03	2.671782e+00	0.000000e+00	
4.175588e-02	-3.272472e-02	9.635393e-01	0.000000e+00	0.000000e+00	2.408967e+00	0.000000e+00	9.635866e-01	1.000049e+00	0.000000e+00	-5.187501e-01	2.958152e-08	6.196881e-03	-2.108079e-03	3.184677e+03	2.725443e+00	0.000000e+00	
3.444509e-02	-3.006547e-02	9.651178e-01	0.000000e+00	0.000000e+00	2.412940e+00	0.000000e+00	9.651761e-01	1.000060e+00	0.000000e+00	-4.961063e-01	2.958177e-08	6.243615e-03	-2.414254e-03	3.214663e+03	2.780390e+00	0.000000e+00	
2.816724e-02	-2.747033e-02	9.673063e-01	0.000000e+00	0.000000e+00	2.418440e+00	0.000000e+00	9.673760e-01	1.000072e+00	0.000000e+00	-4.647660e-01	2.958204e-08	6.249125e-03	-2.746439e-03	3.244326e+03	2.836634e+00	0.000000e+00	
2.280944e-02	-2.495170e-02	9.702301e-01	0.000000e+00	0.000000e+00	2.425785e+00	0.000000e+00	9.703139e-01	1.000086e+00	0.000000e+00	-4.229130e-01	2.958236e-08	6.204031e-03	-3.102790e-03	3.275333e+03	2.894140e+00	0.000000e+00	
1.826886e-02	-2.251990e-02	9.740316e-01	0.000000e+00	0.000000e+00	2.435320e+00	0.000000e+00	9.741282e-01	1.000099e+00	0.000000e+00	-3.685738e-01	2.958266e-08	6.093891e-03	-3.476471e-03	3.310119e+03	2.951785e+00	0.000000e+00	
1.445220e-02	-2.018403e-02	9.788554e-01	0.000000e+00	0.000000e+00	2.447382e+00	0.000000e+00	9.789526e-01	1.000099e+00	0.000000e+00	-2.998438e-01	2.958266e-08	5.899780e-03	-3.852886e-03	3.352204e+03	3.007016e+00	0.000000e+00	
1.127516e-02	-1.795263e-02	9.848162e-01	0.000000e+00	0.000000e+00	2.462220e+00	0.000000e+00	9.848882e-01	1.000073e+00	0.000000e+00	-2.152850e-01	2.958206e-08	5.604280e-03	-4.209291e-03	3.406195e+03	3.056434e+00	0.000000e+00	
8.660978e-03	-1.583433e-02	9.919447e-01	0.000000e+00	0.000000e+00	2.479882e+00	0.000000e+00	9.919526e-01	1.000008e+00	0.000000e+00	-1.146438e-01	2.958058e-08	5.198017e-03	-4.516016e-03	3.477105e+03	3.096278e+00	0.000000e+00	
6.539262e-03	-1.383810e-02	1.000152e+00	0.000000e+00	0.000000e+00	2.500119e+00	0.000000e+00	1.000048e+00	9.998957e-01	0.000000e+00	6.808161e-04	2.957803e-08	4.685018e-03	-4.740350e-03	3.569590e+03	3.123054e+00	0.000000e+00	
4.844550e-03	-1.197282e-02	1.009186e+00	0.000000e+00	0.000000e+00	2.522310e+00	0.000000e+00	1.008924e+00	9.997408e-01	0.000000e+00	1.271340e-01	2.957450e-08	4.086517e-03	-4.853351e-03	3.686227e+03	3.134141e+00	0.000000e+00	
3.515320e-03	-1.024671e-02	1.018622e+00	0.000000e+00	0.000000e+00	2.545465e+00	0.000000e+00	1.018186e+00	9.995725e-01	0.000000e+00	2.590819e-01	2.957067e-08	3.439207e-03	-4.837186e-03	3.823632e+03	3.128206e+00	0.000000e+00	
2.493434e-03	-8.666020e-03	1.027947e+00	0.000000e+00	0.000000e+00	2.568406e+00	0.000000e+00	1.027363e+00	9.994314e-01	0.000000e+00	3.898102e-01	2.956746e-08	2.790163e-03	-4.694121e-03	3.975861e+03	3.106820e+00	0.000000e+00	
1.724623e-03	-7.234077e-03	1.036692e+00	0.000000e+00	0.000000e+00	2.589967e+00	0.000000e+00	1.035987e+00	9.993197e-01	0.000000e+00	5.126726e-01	2.956492e-08	2.183376e-03	-4.444053e-03	4.144536e+03	3.073694e+00	0.000000e+00	
1.159193e-03	-5.950300e-03	1.044487e+00	0.000000e+00	0.000000e+00	2.609212e+00	0.000000e+00	1.043685e+00	9.992322e-01	0.000000e+00	6.223371e-01	2.956293e-08	1.646336e-03	-4.107899e-03	4.320663e+03	3.030005e+00	0.000000e+00	
7.531893e-04	-4.810177e-03	1.051126e+00	0.000000e+00	0.000000e+00	2.625614e+00	0.000000e+00	1.050246e+00	9.991624e-01	0.000000e+00	7.158084e-01	2.956134e-08	1.193511e-03	-3.709098e-03	4.488131e+03	2.975925e+00	0.000000e+00	
4.691284e-04	-3.805771e-03	1.056561e+00	0.000000e+00	0.000000e+00	2.639049e+00	0.000000e+00	1.055620e+00	9.991091e-01	0.000000e+00	7.923661e-01	2.956013e-08	8.291170e-04	-3.274130e-03	4.629146e+03	2.912070e+00	0.000000e+00	
2.762360e-04	-2.926719e-03	1.060856e+00	0.000000e+00	0.000000e+00	2.649695e+00	0.000000e+00	1.059878e+00	9.990779e-01	0.000000e+00	8.530330e-01	2.955942e-08	5.489494e-04	-2.829438e-03	4.727993e+03	2.839883e+00	0.000000e+00	
1.500786e-04	-2.161300e-03	1.064147e+00	0.000000e+00	0.000000e+00	2.657919e+00	0.000000e+00	1.063168e+00	9.990800e-01	0.000000e+00	8.998936e-01	2.955947e-08	3.428776e-04	-2.397314e-03	4.772354e+03	2.761091e+00	0.000000e+00	
7.180327e-05	-1.497377e-03	1.066578e+00	0.000000e+00	0.000000e+00	2.664117e+00	0.000000e+00	1.065647e+00	9.991268e-01	0.000000e+00	9.352147e-01	2.956053e-08	1.978714e-04	-1.994077e-03	4.753569e+03	2.677262e+00	0.000000e+00	
2.721276e-05	-9.231024e-04	1.068336e+00	0.000000e+00	0.000000e+00	2.668770e+00	0.000000e+00	1.067508e+00	9.992252e-01	0.000000e+00	9.617274e-01	2.956277e-08	1.004338e-04	-1.628651e-03	4.663967e+03	2.588625e+00	0.000000e+00	
5.818606e-06	-4.273592e-04	1.069422e+00	0.000000e+00	0.000000e+00	2.671807e+00	0.000000e+00	1.068723e+00	9.993467e-01	0.000000e+00	9.790363e-01	2.956554e-08	3.856988e-05	-1.308355e-03	4.503703e+03	2.497358e+00	0.000000e+00	
0.000000e+00	0.000000e+00	1.070391e+00	0.000000e+00	0.000000e+00	2.674504e+00	0.000000e+00	1.069801e+00	9.994488e-01	0.000000e+00	9.944007e-01	2.956786e-08	-2.672150e-16	-1.020257e-03	4.277021e+03	2.376022e+00	0.000000e+00	
5.818606e-06	4.273592e-04	1.071320e+00	0.000000e+00	0.000000e+00	2.676719e+00	0.000000e+00	1.070688e+00	9.994095e-01	0.000000e+00	1.007028e+00	2.956696e-08	-2.520220e-05	-8.549008e-04	4.615608e+03	2.020413e+00	0.000000e+00	
2.721276e-05	9.231024e-04	1.072169e+00	0.000000e+00	0.000000e+00	2.678395e+00	0.000000e+00	1.071358e+00	9.992433e-01	0.000000e+00	1.016575e+00	2.956318e-08	-3.859411e-05	-6.258482e-04	4.878819e+03	1.607538e+00	0.000000e+00	
7.180327e-05	1.497377e-03	1.072882e+00	0.000000e+00	0.000000e+00	2.679706e+00	0.000000e+00	1.071883e+00	9.990688e-01	0.000000e+00	1.024049e+00	2.955921e-08	-3.283542e-05	-3.309034e-04	5.045739e+03	1.093880e+00	0.000000e+00	
1.500786e-04	2.161300e-03	1.073179e+00	0.000000e+00	0.000000e+00	2.680129e+00	0.000000e+00	1.072052e+00	9.989499e-01	0.000000e+00	1.026460e+00	2.955651e-08	4.224424e-06	2.953611e-05	5.131891e+03	3.078036e-01	0.000000e+00	
2.762360e-04	2.926719e-03	1.072921e+00	0.000000e+00	0.000000e+00	2.679352e+00	0.000000e+00	1.071741e+00	9.989003e-01	0.000000e+00	1.022032e+00	2.955538e-08	8.705667e-05	4.487143e-04	5.145741e+03	1.137497e+00	0.000000e+00	
4.691284e-04	3.805771e-03	1.071911e+00	0.000000e+00	0.000000e+00	2.676836e+00	0.000000e+00	1.070734e+00	9.989029e-01	0.000000e+00	1.007694e+00	2.955544e-08	2.314768e-04	9.140873e-04	5.094792e+03	1.550060e+00	0.000000e+00	
7.531893e-04	4.810177e-03	1.069945e+00	0.000000e+00	0.000000e+00	2.672021e+00	0.000000e+00	1.068809e+00	9.989374e-01	0.000000e+00	9.802557e-01	2.955622e-08	4.518034e-04	1.404079e-03	4.985629e+03	1.847619e+00	0.000000e+00	
1.159193e-03	5.950300e-03	1.066828e+00	0.000000e+00	0.000000e+00	2.664369e+00	0.000000e+00	1.065748e+00	9.989874e-01	0.000000e+00	9.366501e-01	2.955736e-08	7.569773e-04	1.888792e-03	4.827708e+03	2.076841e+00	0.000000e+00	
1.724623e-03	7.234077e-03	1.062426e+00	0.000000e+00	0.000000e+00	2.653521e+00	0.000000e+00	1.061408e+00	9.990423e-01	0.000000e+00	8.748334e-01	2.955861e-08	1.146519e-03	2.333628e-03	4.635097e+03	2.255299e+00	0.000000e+00	
2.493434e-03	8.666020e-03	1.056730e+00	0.000000e+00	0.000000e+00	2.639445e+00	0.000000e+00	1.055778e+00	9.990987e-01	0.000000e+00	7.946197e-01	2.955989e-08	1.608643e-03	2.706353e-03	4.426885e+03	2.392429e+00	0.000000e+00	
3.515320e-03	1.024671e-02	1.049896e+00	0.000000e+00	0.000000e+00	2.622543e+00	0.000000e+00	1.049017e+00	9.991626e-01	0.000000e+00	6.983049e-01	2.956135e-08	2.122356e-03	2.985057e-03	4.224889e+03	2.495623e+00	0.000000e+00	
4.844550e-03	1.197282e-02	1.042231e+00	0.000000e+00	0.000000e+00	2.603623e+00	0.000000e+00	1.041449e+00	9.992494e-01	0.000000e+00	5.904891e-01	2.956332e-08	2.662850e-03	3.162533e-03	4.048585e+03	2.572029e+00	0.000000e+00	
6.539262e-03	1.383810e-02	1.034143e+00	0.000000e+00	0.000000e+00	2.583736e+00	0.000000e+00	1.033494e+00	9.993728e-01	0.000000e+00	4.771674e-01	2.956613e-08	3.204477e-03	3.242323e-03	3.906695e+03	2.627450e+00	0.000000e+00	
8.660978e-03	1.583433e-02	1.026056e+00	0.000000e+00	0.000000e+00	2.563926e+00	0.000000e+00	1.025571e+00	9.995270e-01	0.000000e+00	3.642821e-01	2.956964e-08	3.717240e-03	3.229523e-03	3.791604e+03	2.663998e+00	0.000000e+00	
1.127516e-02	1.795263e-02	1.018360e+00	0.000000e+00	0.000000e+00	2.545052e+00	0.000000e+00	1.018021e+00	9.996668e-01	0.000000e+00	2.567265e-01	2.957282e-08	4.176181e-03	3.136667e-03	3.699904e+03	2.683821e+00	0.000000e+00	
1.445220e-02	2.018403e-02	1.011316e+00	0.000000e+00	0.000000e+00	2.527710e+00	0.000000e+00	1.011084e+00	9.997712e-01	0.000000e+00	1.579064e-01	2.957519e-08	4.562619e-03	2.979645e-03	3.622102e+03	2.688553e+00	0.000000e+00	
1.826886e-02	2.251990e-02	1.005050e+00	0.000000e+00	0.000000e+00	2.512225e+00	0.000000e+00	1.004890e+00	9.998411e-01	0.000000e+00	6.966382e-02	2.957678e-08	4.868764e-03	2.777555e-03	3.550854e+03	2.680651e+00	0.000000e+00	
2.280944e-02	2.495170e-02	9.995849e-01	0.000000e+00	0.000000e+00	2.498678e+00	0.000000e+00	9.994713e-01	9.998864e-01	0.000000e+00	-7.531559e-03	2.957782e-08	5.096875e-03	2.549074e-03	3.482612e+03	2.663016e+00	0.000000e+00	
2.816724e-02	2.747033e-02	9.948862e-01	0.000000e+00	0.000000e+00	2.487008e+00	0.000000e+00	9.948032e-01	9.999166e-01	0.000000e+00	-7.403406e-02	2.957850e-08	5.255133e-03	2.309588e-03	3.416372e+03	2.638409e+00	0.000000e+00	
3.444509e-02	3.006547e-02	9.908914e-01	0.000000e+00	0.000000e+00	2.477073e+00	0.000000e+00	9.908290e-01	9.999370e-01	0.000000e+00	-1.306507e-01	2.957897e-08	5.353518e-03	2.070075e-03	3.352061e+03	2.608983e+00	0.000000e+00	
4.175588e-02	3.272472e-02	9.875275e-01	0.000000e+00	0.000000e+00	2.468694e+00	0.000000e+00	9.874776e-01	9.999495e-01	0.000000e+00	-1.783963e-01	2.957925e-08	5.401582e-03	1.837532e-03	3.289743e+03	2.576227e+00	0.000000e+00	
5.022241e-02	3.543267e-02	9.847228e-01	0.000000e+00	0.000000e+00	2.461697e+00	0.000000e+00	9.846790e-01	9.999555e-01	0.000000e+00	-2.182652e-01	2.957939e-08	5.408728e-03	1.616394e-03	3.229531e+03	2.541360e+00	0.000000e+00	
5.997667e-02	3.816999e-02	9.824114e-01	0.000000e+00	0.000000e+00	2.455922e+00	0.000000e+00	9.823688e-01	9.999566e-01	0.000000e+00	-2.511759e-01	2.957941e-08	5.383513e-03	1.409136e-03	3.171505e+03	2.505341e+00	0.000000e+00	
7.115831e-02	4.091264e-02	9.805358e-01	0.000000e+00	0.000000e+00	2.451228e+00	0.000000e+00	9.804910e-01	9.999543e-01	0.000000e+00	-2.779278e-01	2.957936e-08	5.333111e-03	1.216784e-03	3.115700e+03	2.468856e+00	0.000000e+00	
8.391231e-02	4.363107e-02	9.790483e-01	0.000000e+00	0.000000e+00	2.447497e+00	0.000000e+00	9.789988e-01	9.999494e-01	0.000000e+00	-2.991860e-01	2.957925e-08	5.263217e-03	1.039419e-03	3.062116e+03	2.432344e+00	0.000000e+00	
9.838552e-02	4.628967e-02	9.779119e-01	0.000000e+00	0.000000e+00	2.444640e+00	0.000000e+00	9.778559e-01	9.999427e-01	0.000000e+00	-3.154685e-01	2.957910e-08	5.178247e-03	8.765875e-04	3.010754e+03	2.396067e+00	0.000000e+00	
1.147221e-01	4.884662e-02	9.770981e-01	0.000000e+00	0.000000e+00	2.442586e+00	0.000000e+00	9.770342e-01	9.999347e-01	0.000000e+00	-3.271736e-01	2.957891e-08	5.081611e-03	7.275883e-04	2.961619e+03	2.360169e+00	0.000000e+00	
1.330575e-01	5.125403e-02	9.765830e-01	0.000000e+00	0.000000e+00	2.441276e+00	0.000000e+00	9.765105e-01	9.999257e-01	0.000000e+00	-3.346353e-01	2.957871e-08	4.975896e-03	5.916441e-04	2.914685e+03	2.324703e+00	0.000000e+00	
1.535115e-01	5.345876e-02	9.763480e-01	0.000000e+00	0.000000e+00	2.440665e+00	0.000000e+00	9.762661e-01	9.999162e-01	0.000000e+00	-3.381162e-01	2.957849e-08	4.863161e-03	4.680176e-04	2.869957e+03	2.289683e+00	0.000000e+00	
1.761797e-01	5.540400e-02	9.763786e-01	0.000000e+00	0.000000e+00	2.440718e+00	0.000000e+00	9.762872e-01	9.999064e-01	0.000000e+00	-3.378165e-01	2.957827e-08	4.745227e-03	3.560659e-04	2.827493e+03	2.255144e+00	0.000000e+00	
2.011248e-01	5.703151e-02	9.766574e-01	0.000000e+00	0.000000e+00	2.441391e+00	0.000000e+00	9.765565e-01	9.998967e-01	0.000000e+00	-3.339793e-01	2.957805e-08	4.623711e-03	2.552299e-04	2.787315e+03	2.221126e+00	0.000000e+00	
2.283666e-01	5.828472e-02	9.771672e-01	0.000000e+00	0.000000e+00	2.442644e+00	0.000000e+00	9.770575e-01	9.998877e-01	0.000000e+00	-3.268420e-01	2.957784e-08	4.500171e-03	1.650168e-04	2.749483e+03	2.187707e+00	0.000000e+00	
2.578733e-01	5.911242e-02	9.778879e-01	0.000000e+00	0.000000e+00	2.444425e+00	0.000000e+00	9.777702e-01	9.998797e-01	0.000000e+00	-3.166891e-01	2.957766e-08	4.375881e-03	8.495588e-05	2.713963e+03	2.154940e+00	0.000000e+00	
2.895540e-01	5.947265e-02	9.787963e-01	0.000000e+00	0.000000e+00	2.446679e+00	0.000000e+00	9.786714e-01	9.998724e-01	0.000000e+00	-3.038496e-01	2.957750e-08	4.251840e-03	1.457675e-05	2.680609e+03	2.122846e+00	0.000000e+00	
3.232528e-01	5.933656e-02	9.798648e-01	0.000000e+00	0.000000e+00	2.449333e+00	0.000000e+00	9.797333e-01	9.998658e-01	0.000000e+00	-2.887223e-01	2.957735e-08	4.128829e-03	-4.661335e-05	2.649145e+03	2.091424e+00	0.000000e+00	
3.587470e-01	5.869148e-02	9.810654e-01	0.000000e+00	0.000000e+00	2.452319e+00	0.000000e+00	9.809276e-01	9.998596e-01	0.000000e+00	-2.717079e-01	2.957720e-08	4.007643e-03	-9.915774e-05	2.619319e+03	2.060709e+00	0.000000e+00	
3.957488e-01	5.754285e-02	9.823649e-01	0.000000e+00	0.000000e+00	2.455553e+00	0.000000e+00	9.822211e-01	9.998536e-01	0.000000e+00	-2.532811e-01	2.957707e-08	3.889037e-03	-1.436757e-04	2.590873e+03	2.030753e+00	0.000000e+00	
4.339121e-01	5.591460e-02	9.837341e-01	0.000000e+00	0.000000e+00	2.458961e+00	0.000000e+00	9.835845e-01	9.998479e-01	0.000000e+00	-2.338576e-01	2.957694e-08	3.773808e-03	-1.808737e-04	2.563687e+03	2.001656e+00	0.000000e+00	
4.728433e-01	5.384781e-02	9.851430e-01	0.000000e+00	0.000000e+00	2.462470e+00	0.000000e+00	9.849880e-01	9.998426e-01	0.000000e+00	-2.138636e-01	2.957682e-08	3.662566e-03	-2.115291e-04	2.537652e+03	1.973501e+00	0.000000e+00	
5.121166e-01	5.139795e-02	9.865683e-01	0.000000e+00	0.000000e+00	2.466021e+00	0.000000e+00	9.864083e-01	9.998378e-01	0.000000e+00	-1.936290e-01	2.957671e-08	3.556040e-03	-2.364809e-04	2.512942e+03	1.946442e+00	0.000000e+00	
5.512916e-01	4.863091e-02	9.879893e-01	0.000000e+00	0.000000e+00	2.469562e+00	0.000000e+00	9.878246e-01	9.998333e-01	0.000000e+00	-1.734519e-01	2.957661e-08	3.454559e-03	-2.565669e-04	2.489669e+03	1.920557e+00	0.000000e+00	
5.899328e-01	4.561861e-02	9.893938e-01	0.000000e+00	0.000000e+00	2.473062e+00	0.000000e+00	9.892247e-01	9.998291e-01	0.000000e+00	-1.535068e-01	2.957651e-08	3.358290e-03	-2.725939e-04	2.468028e+03	1.895906e+00	0.000000e+00	
6.276283e-01	4.243463e-02	9.907722e-01	0.000000e+00	0.000000e+00	2.476497e+00	0.000000e+00	9.905987e-01	9.998248e-01	0.000000e+00	-1.339329e-01	2.957641e-08	3.267020e-03	-2.852834e-04	2.448119e+03	1.872464e+00	0.000000e+00	
6.640066e-01	3.915032e-02	9.921223e-01	0.000000e+00	0.000000e+00	2.479861e+00	0.000000e+00	9.919443e-01	9.998205e-01	0.000000e+00	-1.147630e-01	2.957632e-08	3.180196e-03	-2.952420e-04	2.429917e+03	1.850118e+00	0.000000e+00	
6.987499e-01	3.583186e-02	9.934436e-01	0.000000e+00	0.000000e+00	2.483152e+00	0.000000e+00	9.932609e-01	9.998162e-01	0.000000e+00	-9.600576e-02	2.957622e-08	3.097074e-03	-3.029541e-04	2.413369e+03	1.828706e+00	0.000000e+00	
7.316032e-01	3.253806e-02	9.947404e-01	0.000000e+00	0.000000e+00	2.486382e+00	0.000000e+00	9.945530e-01	9.998116e-01	0.000000e+00	-7.759940e-02	2.957611e-08	3.016737e-03	-3.087778e-04	2.398329e+03	1.808008e+00	0.000000e+00	
7.623778e-01	2.931924e-02	9.960176e-01	0.000000e+00	0.000000e+00	2.489563e+00	0.000000e+00	9.958251e-01	9.998068e-01	0.000000e+00	-5.947605e-02	2.957600e-08	2.938254e-03	-3.129654e-04	2.384656e+03	1.787796e+00	0.000000e+00	
7.909518e-01	2.621660e-02	9.972812e-01	0.000000e+00	0.000000e+00	2.492709e+00	0.000000e+00	9.970834e-01	9.998016e-01	0.000000e+00	-4.155015e-02	2.957589e-08	2.860749e-03	-3.156827e-04	2.372214e+03	1.767847e+00	0.000000e+00	
8.172658e-01	2.326236e-02	9.985368e-01	0.000000e+00	0.000000e+00	2.495833e+00	0.000000e+00	9.983332e-01	9.997961e-01	0.000000e+00	-2.374559e-02	2.957576e-08	2.783462e-03	-3.170341e-04	2.360909e+03	1.747965e+00	0.000000e+00	
8.413160e-01	2.048016e-02	9.997892e-01	0.000000e+00	0.000000e+00	2.498948e+00	0.000000e+00	9.995793e-01	9.997901e-01	0.000000e+00	-5.992986e-03	2.957562e-08	2.705750e-03	-3.170814e-04	2.350668e+03	1.727979e+00	0.000000e+00	
8.631457e-01	1.788578e-02	1.001041e+00	0.000000e+00	0.000000e+00	2.502061e+00	0.000000e+00	1.000824e+00	9.997835e-01	0.000000e+00	1.174528e-02	2.957547e-08	2.627106e-03	-3.158636e-04	2.341464e+03	1.707754e+00	0.000000e+00	
8.828360e-01	1.548810e-02	1.002295e+00	0.000000e+00	0.000000e+00	2.505177e+00	0.000000e+00	1.002071e+00	9.997763e-01	0.000000e+00	2.950084e-02	2.957531e-08	2.547170e-03	-3.134134e-04	2.333324e+03	1.687194e+00	0.000000e+00	
9.004963e-01	1.329003e-02	1.003550e+00	0.000000e+00	0.000000e+00	2.508295e+00	0.000000e+00	1.003318e+00	9.997683e-01	0.000000e+00	4.726763e-02	2.957513e-08	2.465708e-03	-3.097660e-04	2.326338e+03	1.666241e+00	0.000000e+00	
9.162555e-01	1.128962e-02	1.004807e+00	0.000000e+00	0.000000e+00	2.511412e+00	0.000000e+00	1.004565e+00	9.997593e-01	0.000000e+00	6.503146e-02	2.957492e-08	2.382599e-03	-3.049661e-04	2.320707e+03	1.644870e+00	0.000000e+00	
9.302548e-01	9.481022e-03	1.006062e+00	0.000000e+00	0.000000e+00	2.514523e+00	0.000000e+00	1.005809e+00	9.997491e-01	0.000000e+00	8.275837e-02	2.957469e-08	2.297912e-03	-2.990824e-04	2.316925e+03	1.623121e+00	0.000000e+00	
9.426407e-01	7.855481e-03	1.007314e+00	0.000000e+00	0.000000e+00	2.517624e+00	0.000000e+00	1.007050e+00	9.997371e-01	0.000000e+00	1.004288e-01	2.957442e-08	2.211986e-03	-2.922219e-04	2.315974e+03	1.601139e+00	0.000000e+00	
9.535602e-01	6.402178e-03	1.008562e+00	0.000000e+00	0.000000e+00	2.520706e+00	0.000000e+00	1.008282e+00	9.997226e-01	0.000000e+00	1.179907e-01	2.957409e-08	2.125749e-03	-2.845746e-04	2.319884e+03	1.579297e+00	0.000000e+00	
9.631568e-01	5.108981e-03	1.009811e+00	0.000000e+00	0.000000e+00	2.523779e+00	0.000000e+00	1.009511e+00	9.997030e-01	0.000000e+00	1.355012e-01	2.957364e-08	2.041301e-03	-2.764960e-04	2.332661e+03	1.558467e+00	0.000000e+00	
9.715675e-01	3.963073e-03	1.011061e+00	0.000000e+00	0.000000e+00	2.526814e+00	0.000000e+00	1.010725e+00	9.996683e-01	0.000000e+00	1.527963e-01	2.957285e-08	1.963621e-03	-2.687455e-04	2.364338e+03	1.540750e+00	0.000000e+00	
9.789211e-01	2.951446e-03	1.012359e+00	0.000000e+00	0.000000e+00	2.529867e+00	0.000000e+00	1.011947e+00	9.995932e-01	0.000000e+00	1.701967e-01	2.957114e-08	1.906154e-03	-2.632720e-04	2.441496e+03	1.531951e+00	0.000000e+00	
9.853369e-01	2.061293e-03	1.013684e+00	0.000000e+00	0.000000e+00	2.532766e+00	0.000000e+00	1.013106e+00	9.994303e-01	0.000000e+00	1.867137e-01	2.956744e-08	1.908498e-03	-2.657165e-04	2.638634e+03	1.549020e+00	0.000000e+00	
9.909241e-01	1.280290e-03	1.015461e+00	0.000000e+00	0.000000e+00	2.536548e+00	0.000000e+00	1.014619e+00	9.991708e-01	0.000000e+00	2.082685e-01	2.956153e-08	2.090799e-03	-2.931481e-04	3.145635e+03	1.641220e+00	0.000000e+00	
9.957821e-01	5.967887e-04	1.016010e+00	0.000000e+00	0.000000e+00	2.537850e+00	0.000000e+00	1.015140e+00	9.991431e-01	0.000000e+00	2.156840e-01	2.956090e-08	2.761612e-03	-3.895517e-04	4.393219e+03	1.911004e+00	0.000000e+00	
1	2
2	3
3	4
4	5
5	6
6	7
7	8
8	9
9	10
10	11
11	12
12	13
13	14
14	15
15	16
16	17
17	18
18	19
19	20
20	21
21	22
22	23
23	24
24	25
25	26
26	27
27	28
28	29
29	30
30	31
31	32
32	33
33	34
34	35
35	36
36	37
37	38
38	39
39	40
40	41
41	42
42	43
43	44
44	45
45	46
46	47
47	48
48	49
49	50
50	51
51	52
52	53
53	54
54	55
55	56
56	57
57	58
58	59
59	60
60	61
61	62
62	63
63	64
64	65
65	66
66	67
67	68
68	69
69	70
70	71
71	72
72	73
73	74
74	75
75	76
76	77
77	78
78	79
79	80
80	81
81	82
82	83
83	84
84	85
85	86
86	87
87	88
88	89
89	90
90	91
91	92
92	93
93	94
94	95
95	96
96	97
97	98
98	99
99	100
100	101
101	102
102	103
103	104
104	105
105	106
106	107
107	108
108	109
109	110
110	111
111	112
112	113
113	114
114	115
115	116
116	117
117	118
118	119
119	120
120	121
121	122
122	123
123	124
124	125
125	126
126	127
127	128
128	1
