TITLE = "Visualization of the solution"
VARIABLES = "x","y","Density","Momentum_x","Momentum_y","Energy","Nu_Tilde","Pressure","Temperature","Mach","Pressure_Coefficient","Laminar_Viscosity","Skin_Friction_Coefficient_x","Skin_Friction_Coefficient_y","Heat_Flux","Y_Plus","Eddy_Viscosity"
ZONE NODES= 128, ELEMENTS= 128, DATAPACKING=POINT, ZONETYPE=FELINESEG
1.000000e+00	5.352203e-08	1.015471e+00	0.000000e+00	0.000000e+00	2.540513e+00	0.000000e+00	1.016205e+00	1.000723e+00	0.000000e+00	2.308640e-01	2.959685e-08	-9.123330e-14	-3.665283e-04	3.415745e+02	7.595144e+02	0.000000e+00	
9.957821e-01	-5.967887e-04	1.015786e+00	0.000000e+00	0.000000e+00	2.537385e+00	0.000000e+00	1.014954e+00	9.991808e-01	0.000000e+00	2.130379e-01	2.956176e-08	3.239489e-03	4.569990e-04	4.442205e+03	2.069466e+00	0.000000e+00	
9.909241e-01	-1.280290e-03	1.015484e+00	0.000000e+00	0.000000e+00	2.536665e+00	0.000000e+00	1.014666e+00	9.991946e-01	0.000000e+00	2.089364e-01	2.956207e-08	2.513723e-03	3.524458e-04	3.192684e+03	1.799560e+00	0.000000e+00	
9.853369e-01	-2.061293e-03	1.013740e+00	0.000000e+00	0.000000e+00	2.532982e+00	0.000000e+00	1.013193e+00	9.994603e-01	0.000000e+00	1.879450e-01	2.956812e-08	2.308394e-03	3.213933e-04	2.687651e+03	1.703602e+00	0.000000e+00	
9.789211e-01	-2.951446e-03	1.012576e+00	0.000000e+00	0.000000e+00	2.530484e+00	0.000000e+00	1.012194e+00	9.996221e-01	0.000000e+00	1.737140e-01	2.957180e-08	2.289065e-03	3.161585e-04	2.489984e+03	1.678927e+00	0.000000e+00	
9.715675e-01	-3.963073e-03	1.011460e+00	0.000000e+00	0.000000e+00	2.527876e+00	0.000000e+00	1.011150e+00	9.996939e-01	0.000000e+00	1.588492e-01	2.957344e-08	2.327785e-03	3.185857e-04	2.407591e+03	1.677846e+00	0.000000e+00	
9.631568e-01	-5.108981e-03	1.010445e+00	0.000000e+00	0.000000e+00	2.525418e+00	0.000000e+00	1.010167e+00	9.997251e-01	0.000000e+00	1.448453e-01	2.957414e-08	2.385669e-03	3.231409e-04	2.369588e+03	1.685303e+00	0.000000e+00	
9.535602e-01	-6.402178e-03	1.009462e+00	0.000000e+00	0.000000e+00	2.523005e+00	0.000000e+00	1.009202e+00	9.997429e-01	0.000000e+00	1.310925e-01	2.957455e-08	2.448957e-03	3.278426e-04	2.350046e+03	1.695841e+00	0.000000e+00	
9.426407e-01	-7.855481e-03	1.008517e+00	0.000000e+00	0.000000e+00	2.520677e+00	0.000000e+00	1.008271e+00	9.997557e-01	0.000000e+00	1.178246e-01	2.957484e-08	2.513136e-03	3.320063e-04	2.339913e+03	1.707649e+00	0.000000e+00	
9.302548e-01	-9.481022e-03	1.007599e+00	0.000000e+00	0.000000e+00	2.518409e+00	0.000000e+00	1.007364e+00	9.997662e-01	0.000000e+00	1.049020e-01	2.957508e-08	2.576143e-03	3.352952e-04	2.334943e+03	1.719868e+00	0.000000e+00	
9.162555e-01	-1.128962e-02	1.006712e+00	0.000000e+00	0.000000e+00	2.516213e+00	0.000000e+00	1.006485e+00	9.997749e-01	0.000000e+00	9.238630e-02	2.957528e-08	2.637356e-03	3.375743e-04	2.333183e+03	1.732194e+00	0.000000e+00	
9.004963e-01	-1.329003e-02	1.005854e+00	0.000000e+00	0.000000e+00	2.514087e+00	0.000000e+00	1.005635e+00	9.997823e-01	0.000000e+00	8.027253e-02	2.957545e-08	2.696630e-03	3.387767e-04	2.333625e+03	1.744499e+00	0.000000e+00	
8.828360e-01	-1.548810e-02	1.005027e+00	0.000000e+00	0.000000e+00	2.512038e+00	0.000000e+00	1.004815e+00	9.997887e-01	0.000000e+00	6.859696e-02	2.957559e-08	2.754101e-03	3.388750e-04	2.335837e+03	1.756763e+00	0.000000e+00	
8.631457e-01	-1.788578e-02	1.004234e+00	0.000000e+00	0.000000e+00	2.510069e+00	0.000000e+00	1.004027e+00	9.997944e-01	0.000000e+00	5.737548e-02	2.957572e-08	2.809983e-03	3.378515e-04	2.339614e+03	1.768993e+00	0.000000e+00	
8.413160e-01	-2.048016e-02	1.003474e+00	0.000000e+00	0.000000e+00	2.508183e+00	0.000000e+00	1.003273e+00	9.997995e-01	0.000000e+00	4.662791e-02	2.957584e-08	2.864564e-03	3.356925e-04	2.344872e+03	1.781229e+00	0.000000e+00	
8.172658e-01	-2.326236e-02	1.002748e+00	0.000000e+00	0.000000e+00	2.506379e+00	0.000000e+00	1.002552e+00	9.998040e-01	0.000000e+00	3.635287e-02	2.957594e-08	2.918175e-03	3.323778e-04	2.351566e+03	1.793523e+00	0.000000e+00	
7.909518e-01	-2.621660e-02	1.002056e+00	0.000000e+00	0.000000e+00	2.504659e+00	0.000000e+00	1.001864e+00	9.998080e-01	0.000000e+00	2.654867e-02	2.957603e-08	2.971219e-03	3.278730e-04	2.359694e+03	1.805956e+00	0.000000e+00	
7.623778e-01	-2.931924e-02	1.001396e+00	0.000000e+00	0.000000e+00	2.503018e+00	0.000000e+00	1.001207e+00	9.998115e-01	0.000000e+00	1.719998e-02	2.957611e-08	3.024145e-03	3.221140e-04	2.369267e+03	1.818622e+00	0.000000e+00	
7.316032e-01	-3.253806e-02	1.000768e+00	0.000000e+00	0.000000e+00	2.501455e+00	0.000000e+00	1.000582e+00	9.998148e-01	0.000000e+00	8.293842e-03	2.957619e-08	3.077454e-03	3.149925e-04	2.380321e+03	1.831631e+00	0.000000e+00	
6.987499e-01	-3.583186e-02	1.000170e+00	0.000000e+00	0.000000e+00	2.499968e+00	0.000000e+00	9.999873e-01	9.998177e-01	0.000000e+00	-1.809212e-04	2.957625e-08	3.131665e-03	3.063378e-04	2.392901e+03	1.845102e+00	0.000000e+00	
6.640066e-01	-3.915032e-02	9.996030e-01	0.000000e+00	0.000000e+00	2.498559e+00	0.000000e+00	9.994236e-01	9.998205e-01	0.000000e+00	-8.211790e-03	2.957632e-08	3.187310e-03	2.959024e-04	2.407077e+03	1.859156e+00	0.000000e+00	
6.276283e-01	-4.243463e-02	9.990701e-01	0.000000e+00	0.000000e+00	2.497234e+00	0.000000e+00	9.988935e-01	9.998232e-01	0.000000e+00	-1.576372e-02	2.957638e-08	3.244870e-03	2.833493e-04	2.422927e+03	1.873906e+00	0.000000e+00	
5.899328e-01	-4.561861e-02	9.985777e-01	0.000000e+00	0.000000e+00	2.496009e+00	0.000000e+00	9.984038e-01	9.998258e-01	0.000000e+00	-2.274005e-02	2.957644e-08	3.304736e-03	2.682469e-04	2.440549e+03	1.889442e+00	0.000000e+00	
5.512916e-01	-4.863091e-02	9.981351e-01	0.000000e+00	0.000000e+00	2.494910e+00	0.000000e+00	9.979640e-01	9.998286e-01	0.000000e+00	-2.900542e-02	2.957650e-08	3.367089e-03	2.500706e-04	2.460001e+03	1.905804e+00	0.000000e+00	
5.121166e-01	-5.139795e-02	9.977583e-01	0.000000e+00	0.000000e+00	2.493975e+00	0.000000e+00	9.975901e-01	9.998314e-01	0.000000e+00	-3.433211e-02	2.957656e-08	3.431865e-03	2.282231e-04	2.481334e+03	1.922979e+00	0.000000e+00	
4.728433e-01	-5.384781e-02	9.974667e-01	0.000000e+00	0.000000e+00	2.493253e+00	0.000000e+00	9.973013e-01	9.998342e-01	0.000000e+00	-3.844576e-02	2.957663e-08	3.498656e-03	2.020626e-04	2.504538e+03	1.940875e+00	0.000000e+00	
4.339121e-01	-5.591460e-02	9.972864e-01	0.000000e+00	0.000000e+00	2.492810e+00	0.000000e+00	9.971239e-01	9.998371e-01	0.000000e+00	-4.097332e-02	2.957669e-08	3.566772e-03	1.709508e-04	2.529630e+03	1.959349e+00	0.000000e+00	
3.957488e-01	-5.754285e-02	9.972464e-01	0.000000e+00	0.000000e+00	2.492717e+00	0.000000e+00	9.970867e-01	9.998398e-01	0.000000e+00	-4.150351e-02	2.957675e-08	3.635184e-03	1.342974e-04	2.556613e+03	1.978193e+00	0.000000e+00	
3.587470e-01	-5.869148e-02	9.973804e-01	0.000000e+00	0.000000e+00	2.493058e+00	0.000000e+00	9.972231e-01	9.998422e-01	0.000000e+00	-3.956049e-02	2.957681e-08	3.702602e-03	9.161036e-05	2.585542e+03	1.997161e+00	0.000000e+00	
3.232528e-01	-5.933656e-02	9.977206e-01	0.000000e+00	0.000000e+00	2.493913e+00	0.000000e+00	9.975652e-01	9.998442e-01	0.000000e+00	-3.468627e-02	2.957686e-08	3.767451e-03	4.253349e-05	2.616455e+03	2.015956e+00	0.000000e+00	
2.895540e-01	-5.947265e-02	9.983006e-01	0.000000e+00	0.000000e+00	2.495366e+00	0.000000e+00	9.981464e-01	9.998456e-01	0.000000e+00	-2.640599e-02	2.957689e-08	3.828020e-03	-1.312375e-05	2.649456e+03	2.034280e+00	0.000000e+00	
2.578733e-01	-5.911242e-02	9.991490e-01	0.000000e+00	0.000000e+00	2.497488e+00	0.000000e+00	9.989952e-01	9.998461e-01	0.000000e+00	-1.431422e-02	2.957690e-08	3.882440e-03	-7.537593e-05	2.684637e+03	2.051808e+00	0.000000e+00	
2.283666e-01	-5.828472e-02	1.000292e+00	0.000000e+00	0.000000e+00	2.500343e+00	0.000000e+00	1.000137e+00	9.998456e-01	0.000000e+00	1.952733e-03	2.957689e-08	3.928813e-03	-1.440657e-04	2.722124e+03	2.068228e+00	0.000000e+00	
2.011248e-01	-5.703151e-02	1.001749e+00	0.000000e+00	0.000000e+00	2.503982e+00	0.000000e+00	1.001593e+00	9.998438e-01	0.000000e+00	2.268941e-02	2.957685e-08	3.965201e-03	-2.188800e-04	2.762047e+03	2.083227e+00	0.000000e+00	
1.761797e-01	-5.540400e-02	1.003538e+00	0.000000e+00	0.000000e+00	2.508446e+00	0.000000e+00	1.003379e+00	9.998407e-01	0.000000e+00	4.813080e-02	2.957678e-08	3.989625e-03	-2.993681e-04	2.804519e+03	2.096485e+00	0.000000e+00	
1.535115e-01	-5.345876e-02	1.005670e+00	0.000000e+00	0.000000e+00	2.513763e+00	0.000000e+00	1.005505e+00	9.998361e-01	0.000000e+00	7.842967e-02	2.957667e-08	3.999964e-03	-3.849458e-04	2.849546e+03	2.107640e+00	0.000000e+00	
1.330575e-01	-5.125403e-02	1.008156e+00	0.000000e+00	0.000000e+00	2.519960e+00	0.000000e+00	1.007984e+00	9.998295e-01	0.000000e+00	1.137433e-01	2.957652e-08	3.993921e-03	-4.748852e-04	2.897054e+03	2.116279e+00	0.000000e+00	
1.147221e-01	-4.884662e-02	1.011001e+00	0.000000e+00	0.000000e+00	2.527051e+00	0.000000e+00	1.010820e+00	9.998208e-01	0.000000e+00	1.541468e-01	2.957632e-08	3.968775e-03	-5.682517e-04	2.946659e+03	2.121854e+00	0.000000e+00	
9.838552e-02	-4.628967e-02	1.014212e+00	0.000000e+00	0.000000e+00	2.535046e+00	0.000000e+00	1.014018e+00	9.998093e-01	0.000000e+00	1.997090e-01	2.957606e-08	3.921376e-03	-6.638210e-04	2.997613e+03	2.123664e+00	0.000000e+00	
8.391231e-02	-4.363107e-02	1.017793e+00	0.000000e+00	0.000000e+00	2.543958e+00	0.000000e+00	1.017583e+00	9.997944e-01	0.000000e+00	2.504948e-01	2.957572e-08	3.848017e-03	-7.599348e-04	3.048616e+03	2.120787e+00	0.000000e+00	
7.115831e-02	-4.091264e-02	1.021745e+00	0.000000e+00	0.000000e+00	2.553789e+00	0.000000e+00	1.021516e+00	9.997752e-01	0.000000e+00	3.065138e-01	2.957529e-08	3.744373e-03	-8.543032e-04	3.097560e+03	2.112002e+00	0.000000e+00	
5.997667e-02	-3.816999e-02	1.026068e+00	0.000000e+00	0.000000e+00	2.564528e+00	0.000000e+00	1.025811e+00	9.997503e-01	0.000000e+00	3.677126e-01	2.957472e-08	3.605679e-03	-9.437873e-04	3.141418e+03	2.095742e+00	0.000000e+00	
5.022241e-02	-3.543267e-02	1.030753e+00	0.000000e+00	0.000000e+00	2.576152e+00	0.000000e+00	1.030461e+00	9.997168e-01	0.000000e+00	4.339514e-01	2.957396e-08	3.427113e-03	-1.024190e-03	3.176525e+03	2.070059e+00	0.000000e+00	
4.175588e-02	-3.272472e-02	1.035784e+00	0.000000e+00	0.000000e+00	2.588604e+00	0.000000e+00	1.035442e+00	9.996697e-01	0.000000e+00	5.049047e-01	2.957289e-08	3.204631e-03	-1.090164e-03	3.199800e+03	2.032666e+00	0.000000e+00	
3.444509e-02	-3.006547e-02	1.041123e+00	0.000000e+00	0.000000e+00	2.601770e+00	0.000000e+00	1.040708e+00	9.996019e-01	0.000000e+00	5.799336e-01	2.957134e-08	2.936492e-03	-1.135470e-03	3.211738e+03	1.981143e+00	0.000000e+00	
2.816724e-02	-2.747033e-02	1.046698e+00	0.000000e+00	0.000000e+00	2.615461e+00	0.000000e+00	1.046184e+00	9.995097e-01	0.000000e+00	6.579477e-01	2.956924e-08	2.624957e-03	-1.153647e-03	3.221052e+03	1.913248e+00	0.000000e+00	
2.280944e-02	-2.495170e-02	1.052375e+00	0.000000e+00	0.000000e+00	2.629376e+00	0.000000e+00	1.051750e+00	9.994068e-01	0.000000e+00	7.372425e-01	2.956690e-08	2.276084e-03	-1.138326e-03	3.246990e+03	1.826634e+00	0.000000e+00	
1.826886e-02	-2.251990e-02	1.057943e+00	0.000000e+00	0.000000e+00	2.643066e+00	0.000000e+00	1.057226e+00	9.993227e-01	0.000000e+00	8.152558e-01	2.956499e-08	1.895636e-03	-1.081431e-03	3.315238e+03	1.716797e+00	0.000000e+00	
1.445220e-02	-2.018403e-02	1.063134e+00	0.000000e+00	0.000000e+00	2.655891e+00	0.000000e+00	1.062357e+00	9.992691e-01	0.000000e+00	8.883406e-01	2.956377e-08	1.480982e-03	-9.671640e-04	3.441697e+03	1.571103e+00	0.000000e+00	
1.127516e-02	-1.795263e-02	1.067609e+00	0.000000e+00	0.000000e+00	2.666987e+00	0.000000e+00	1.066795e+00	9.992368e-01	0.000000e+00	9.515658e-01	2.956303e-08	1.024977e-03	-7.698450e-04	3.619748e+03	1.361822e+00	0.000000e+00	
8.660978e-03	-1.583433e-02	1.070955e+00	0.000000e+00	0.000000e+00	2.675285e+00	0.000000e+00	1.070114e+00	9.992150e-01	0.000000e+00	9.988561e-01	2.956254e-08	5.298076e-04	-4.602946e-04	3.828852e+03	1.027749e+00	0.000000e+00	
6.539262e-03	-1.383810e-02	1.072713e+00	0.000000e+00	0.000000e+00	2.679632e+00	0.000000e+00	1.071853e+00	9.991982e-01	0.000000e+00	1.023625e+00	2.956216e-08	1.373007e-05	-1.389223e-05	4.043534e+03	1.751871e-01	0.000000e+00	
4.844550e-03	-1.197282e-02	1.072480e+00	0.000000e+00	0.000000e+00	2.679014e+00	0.000000e+00	1.071606e+00	9.991850e-01	0.000000e+00	1.020103e+00	2.956186e-08	-4.894532e-04	5.812990e-04	4.237921e+03	1.118645e+00	0.000000e+00	
3.515320e-03	-1.024671e-02	1.070002e+00	0.000000e+00	0.000000e+00	2.672803e+00	0.000000e+00	1.069121e+00	9.991763e-01	0.000000e+00	9.847082e-01	2.956166e-08	-9.367365e-04	1.317504e-03	4.388186e+03	1.673760e+00	0.000000e+00	
2.493434e-03	-8.666020e-03	1.065264e+00	0.000000e+00	0.000000e+00	2.660964e+00	0.000000e+00	1.064385e+00	9.991757e-01	0.000000e+00	9.172442e-01	2.956164e-08	-1.286561e-03	2.164487e-03	4.474346e+03	2.148054e+00	0.000000e+00	
1.724623e-03	-7.234077e-03	1.058542e+00	0.000000e+00	0.000000e+00	2.644219e+00	0.000000e+00	1.057688e+00	9.991929e-01	0.000000e+00	8.218249e-01	2.956204e-08	-1.509385e-03	3.072208e-03	4.480874e+03	2.582664e+00	0.000000e+00	
1.159193e-03	-5.950300e-03	1.050337e+00	0.000000e+00	0.000000e+00	2.623857e+00	0.000000e+00	1.049543e+00	9.992434e-01	0.000000e+00	7.057920e-01	2.956319e-08	-1.595225e-03	3.980368e-03	4.398664e+03	2.990917e+00	0.000000e+00	
7.531893e-04	-4.810177e-03	1.041246e+00	0.000000e+00	0.000000e+00	2.601418e+00	0.000000e+00	1.040567e+00	9.993482e-01	0.000000e+00	5.779286e-01	2.956557e-08	-1.554316e-03	4.830381e-03	4.225163e+03	3.379603e+00	0.000000e+00	
4.691284e-04	-3.805771e-03	1.031819e+00	0.000000e+00	0.000000e+00	2.578338e+00	0.000000e+00	1.031335e+00	9.995315e-01	0.000000e+00	4.464067e-01	2.956974e-08	-1.411652e-03	5.574523e-03	3.963341e+03	3.753798e+00	0.000000e+00	
2.762360e-04	-2.926719e-03	1.022522e+00	0.000000e+00	0.000000e+00	2.555769e+00	0.000000e+00	1.022308e+00	9.997909e-01	0.000000e+00	3.177989e-01	2.957564e-08	-1.199432e-03	6.182208e-03	3.626934e+03	4.119001e+00	0.000000e+00	
1.500786e-04	-2.161300e-03	1.013659e+00	0.000000e+00	0.000000e+00	2.534433e+00	0.000000e+00	1.013773e+00	1.000112e+00	0.000000e+00	1.962138e-01	2.958296e-08	-9.505411e-04	6.645943e-03	3.237906e+03	4.483290e+00	0.000000e+00	
7.180327e-05	-1.497377e-03	1.005450e+00	0.000000e+00	0.000000e+00	2.514900e+00	0.000000e+00	1.005960e+00	1.000507e+00	0.000000e+00	8.490738e-02	2.959194e-08	-6.917065e-04	6.970767e-03	2.812045e+03	4.854930e+00	0.000000e+00	
2.721276e-05	-9.231024e-04	9.977554e-01	0.000000e+00	0.000000e+00	2.496927e+00	0.000000e+00	9.987707e-01	1.001018e+00	0.000000e+00	-1.751251e-02	2.960354e-08	-4.411549e-04	7.153836e-03	2.362497e+03	5.235815e+00	0.000000e+00	
5.818606e-06	-4.273592e-04	9.910138e-01	0.000000e+00	0.000000e+00	2.481403e+00	0.000000e+00	9.925613e-01	1.001562e+00	0.000000e+00	-1.059730e-01	2.961591e-08	-2.118486e-04	7.186259e-03	1.912934e+03	5.624651e+00	0.000000e+00	
0.000000e+00	0.000000e+00	9.842267e-01	0.000000e+00	0.000000e+00	2.465182e+00	0.000000e+00	9.860728e-01	1.001876e+00	0.000000e+00	-1.984082e-01	2.962305e-08	1.824719e-15	6.966984e-03	1.549905e+03	5.942711e+00	0.000000e+00	
5.818606e-06	4.273592e-04	9.778897e-01	0.000000e+00	0.000000e+00	2.449405e+00	0.000000e+00	9.797622e-01	1.001915e+00	0.000000e+00	-2.883109e-01	2.962394e-08	2.219220e-04	7.527966e-03	1.530924e+03	5.717028e+00	0.000000e+00	
2.721276e-05	9.231024e-04	9.719921e-01	0.000000e+00	0.000000e+00	2.434603e+00	0.000000e+00	9.738412e-01	1.001902e+00	0.000000e+00	-3.726614e-01	2.962365e-08	4.964168e-04	8.049973e-03	1.502513e+03	5.478180e+00	0.000000e+00	
7.180327e-05	1.497377e-03	9.641766e-01	0.000000e+00	0.000000e+00	2.414876e+00	0.000000e+00	9.659504e-01	1.001840e+00	0.000000e+00	-4.850758e-01	2.962223e-08	8.555557e-04	8.621980e-03	1.426711e+03	5.282019e+00	0.000000e+00	
1.500786e-04	2.161300e-03	9.551708e-01	0.000000e+00	0.000000e+00	2.392225e+00	0.000000e+00	9.568899e-01	1.001800e+00	0.000000e+00	-6.141524e-01	2.962132e-08	1.315639e-03	9.198617e-03	1.298142e+03	5.113420e+00	0.000000e+00	
2.762360e-04	2.926719e-03	9.448472e-01	0.000000e+00	0.000000e+00	2.366317e+00	0.000000e+00	9.465266e-01	1.001777e+00	0.000000e+00	-7.617890e-01	2.962081e-08	1.894223e-03	9.763350e-03	1.124971e+03	4.968225e+00	0.000000e+00	
4.691284e-04	3.805771e-03	9.332610e-01	0.000000e+00	0.000000e+00	2.337263e+00	0.000000e+00	9.349052e-01	1.001762e+00	0.000000e+00	-9.273500e-01	2.962046e-08	2.604438e-03	1.028476e-02	9.207891e+02	4.840829e+00	0.000000e+00	
7.531893e-04	4.810177e-03	9.206691e-01	0.000000e+00	0.000000e+00	2.305693e+00	0.000000e+00	9.222773e-01	1.001747e+00	0.000000e+00	-1.107249e+00	2.962012e-08	3.448293e-03	1.071633e-02	7.053148e+02	4.724684e+00	0.000000e+00	
1.159193e-03	5.950300e-03	9.075187e-01	0.000000e+00	0.000000e+00	2.272726e+00	0.000000e+00	9.090902e-01	1.001732e+00	0.000000e+00	-1.295113e+00	2.961977e-08	4.406638e-03	1.099534e-02	5.067496e+02	4.611901e+00	0.000000e+00	
1.724623e-03	7.234077e-03	8.944627e-01	0.000000e+00	0.000000e+00	2.240000e+00	0.000000e+00	8.960002e-01	1.001719e+00	0.000000e+00	-1.481596e+00	2.961948e-08	5.424377e-03	1.104080e-02	3.644653e+02	4.491866e+00	0.000000e+00	
2.493434e-03	8.666020e-03	8.823225e-01	0.000000e+00	0.000000e+00	2.209551e+00	0.000000e+00	8.838206e-01	1.001698e+00	0.000000e+00	-1.655109e+00	2.961901e-08	6.427094e-03	1.081283e-02	3.138016e+02	4.360944e+00	0.000000e+00	
3.515320e-03	1.024671e-02	8.719718e-01	0.000000e+00	0.000000e+00	2.183521e+00	0.000000e+00	8.734082e-01	1.001647e+00	0.000000e+00	-1.803444e+00	2.961786e-08	7.337619e-03	1.032023e-02	3.756196e+02	4.220813e+00	0.000000e+00	
4.844550e-03	1.197282e-02	8.641234e-01	0.000000e+00	0.000000e+00	2.163674e+00	0.000000e+00	8.654698e-01	1.001558e+00	0.000000e+00	-1.916537e+00	2.961583e-08	8.089221e-03	9.607161e-03	5.477220e+02	4.074657e+00	0.000000e+00	
6.539262e-03	1.383810e-02	8.591626e-01	0.000000e+00	0.000000e+00	2.150986e+00	0.000000e+00	8.603945e-01	1.001434e+00	0.000000e+00	-1.988839e+00	2.961300e-08	8.639530e-03	8.741567e-03	8.079745e+02	3.926091e+00	0.000000e+00	
8.660978e-03	1.583433e-02	8.570967e-01	0.000000e+00	0.000000e+00	2.145489e+00	0.000000e+00	8.581954e-01	1.001282e+00	0.000000e+00	-2.020168e+00	2.960955e-08	8.975867e-03	7.798196e-03	1.123989e+03	3.778378e+00	0.000000e+00	
1.127516e-02	1.795263e-02	8.576067e-01	0.000000e+00	0.000000e+00	2.146405e+00	0.000000e+00	8.585619e-01	1.001114e+00	0.000000e+00	-2.014947e+00	2.960573e-08	9.113650e-03	6.845126e-03	1.460221e+03	3.634297e+00	0.000000e+00	
1.445220e-02	2.018403e-02	8.601830e-01	0.000000e+00	0.000000e+00	2.152483e+00	0.000000e+00	8.609931e-01	1.000942e+00	0.000000e+00	-1.980312e+00	2.960182e-08	9.086270e-03	5.933842e-03	1.786059e+03	3.495953e+00	0.000000e+00	
1.826886e-02	2.251990e-02	8.642712e-01	0.000000e+00	0.000000e+00	2.162352e+00	0.000000e+00	8.649408e-01	1.000775e+00	0.000000e+00	-1.924073e+00	2.959802e-08	8.933808e-03	5.096600e-03	2.080225e+03	3.364873e+00	0.000000e+00	
2.280944e-02	2.495170e-02	8.693581e-01	0.000000e+00	0.000000e+00	2.174739e+00	0.000000e+00	8.698957e-01	1.000618e+00	0.000000e+00	-1.853485e+00	2.959446e-08	8.695011e-03	4.348591e-03	2.330845e+03	3.241918e+00	0.000000e+00	
2.816724e-02	2.747033e-02	8.750332e-01	0.000000e+00	0.000000e+00	2.188627e+00	0.000000e+00	8.754508e-01	1.000477e+00	0.000000e+00	-1.774346e+00	2.959125e-08	8.402806e-03	3.692964e-03	2.533556e+03	3.127525e+00	0.000000e+00	
3.444509e-02	3.006547e-02	8.809795e-01	0.000000e+00	0.000000e+00	2.203245e+00	0.000000e+00	8.812979e-01	1.000361e+00	0.000000e+00	-1.691047e+00	2.958862e-08	8.085714e-03	3.126549e-03	2.688105e+03	3.022310e+00	0.000000e+00	
4.175588e-02	3.272472e-02	8.869604e-01	0.000000e+00	0.000000e+00	2.218021e+00	0.000000e+00	8.872082e-01	1.000279e+00	0.000000e+00	-1.606847e+00	2.958676e-08	7.769505e-03	2.643061e-03	2.799594e+03	2.927438e+00	0.000000e+00	
5.022241e-02	3.543267e-02	8.928428e-01	0.000000e+00	0.000000e+00	2.232597e+00	0.000000e+00	8.930387e-01	1.000219e+00	0.000000e+00	-1.523786e+00	2.958539e-08	7.459909e-03	2.229388e-03	2.877695e+03	2.841370e+00	0.000000e+00	
5.997667e-02	3.816999e-02	8.985621e-01	0.000000e+00	0.000000e+00	2.246786e+00	0.000000e+00	8.987145e-01	1.000170e+00	0.000000e+00	-1.442928e+00	2.958426e-08	7.156979e-03	1.873341e-03	2.929829e+03	2.762200e+00	0.000000e+00	
7.115831e-02	4.091264e-02	9.040854e-01	0.000000e+00	0.000000e+00	2.260498e+00	0.000000e+00	9.041992e-01	1.000126e+00	0.000000e+00	-1.364791e+00	2.958326e-08	6.862362e-03	1.565693e-03	2.961093e+03	2.688796e+00	0.000000e+00	
8.391231e-02	4.363107e-02	9.093994e-01	0.000000e+00	0.000000e+00	2.273697e+00	0.000000e+00	9.094787e-01	1.000087e+00	0.000000e+00	-1.289579e+00	2.958238e-08	6.577819e-03	1.299036e-03	2.975764e+03	2.620412e+00	0.000000e+00	
9.838552e-02	4.628967e-02	9.145077e-01	0.000000e+00	0.000000e+00	2.286390e+00	0.000000e+00	9.145559e-01	1.000053e+00	0.000000e+00	-1.217248e+00	2.958160e-08	6.304012e-03	1.067160e-03	2.977482e+03	2.556367e+00	0.000000e+00	
1.147221e-01	4.884662e-02	9.194262e-01	0.000000e+00	0.000000e+00	2.298615e+00	0.000000e+00	9.194461e-01	1.000022e+00	0.000000e+00	-1.147582e+00	2.958089e-08	6.040638e-03	8.649023e-04	2.969202e+03	2.495998e+00	0.000000e+00	
1.330575e-01	5.125403e-02	9.241750e-01	0.000000e+00	0.000000e+00	2.310423e+00	0.000000e+00	9.241691e-01	9.999936e-01	0.000000e+00	-1.080298e+00	2.958025e-08	5.786977e-03	6.880832e-04	2.953294e+03	2.438695e+00	0.000000e+00	
1.535115e-01	5.345876e-02	9.287743e-01	0.000000e+00	0.000000e+00	2.321861e+00	0.000000e+00	9.287445e-01	9.999680e-01	0.000000e+00	-1.015115e+00	2.957967e-08	5.542230e-03	5.333694e-04	2.931667e+03	2.383932e+00	0.000000e+00	
1.761797e-01	5.540400e-02	9.332459e-01	0.000000e+00	0.000000e+00	2.332985e+00	0.000000e+00	9.331941e-01	9.999444e-01	0.000000e+00	-9.517266e-01	2.957913e-08	5.305679e-03	3.981203e-04	2.905779e+03	2.331270e+00	0.000000e+00	
2.011248e-01	5.703151e-02	9.376059e-01	0.000000e+00	0.000000e+00	2.343834e+00	0.000000e+00	9.375337e-01	9.999229e-01	0.000000e+00	-8.899043e-01	2.957865e-08	5.077084e-03	2.802562e-04	2.876871e+03	2.280423e+00	0.000000e+00	
2.283666e-01	5.828472e-02	9.418638e-01	0.000000e+00	0.000000e+00	2.354433e+00	0.000000e+00	9.417731e-01	9.999037e-01	0.000000e+00	-8.295088e-01	2.957821e-08	4.856744e-03	1.780920e-04	2.846056e+03	2.231267e+00	0.000000e+00	
2.578733e-01	5.911242e-02	9.460222e-01	0.000000e+00	0.000000e+00	2.364790e+00	0.000000e+00	9.459158e-01	9.998876e-01	0.000000e+00	-7.704909e-01	2.957784e-08	4.645349e-03	9.018748e-05	2.814337e+03	2.183811e+00	0.000000e+00	
2.895540e-01	5.947265e-02	9.500794e-01	0.000000e+00	0.000000e+00	2.374901e+00	0.000000e+00	9.499604e-01	9.998748e-01	0.000000e+00	-7.128714e-01	2.957755e-08	4.443194e-03	1.523278e-05	2.782379e+03	2.138015e+00	0.000000e+00	
3.232528e-01	5.933656e-02	9.540255e-01	0.000000e+00	0.000000e+00	2.384740e+00	0.000000e+00	9.538960e-01	9.998643e-01	0.000000e+00	-6.568037e-01	2.957731e-08	4.249973e-03	-4.798103e-05	2.750485e+03	2.093723e+00	0.000000e+00	
3.587470e-01	5.869148e-02	9.578520e-01	0.000000e+00	0.000000e+00	2.394284e+00	0.000000e+00	9.577135e-01	9.998554e-01	0.000000e+00	-6.024191e-01	2.957711e-08	4.065109e-03	-1.005796e-04	2.718562e+03	2.050737e+00	0.000000e+00	
3.957488e-01	5.754285e-02	9.615427e-01	0.000000e+00	0.000000e+00	2.403489e+00	0.000000e+00	9.613958e-01	9.998472e-01	0.000000e+00	-5.499613e-01	2.957692e-08	3.888495e-03	-1.436557e-04	2.686673e+03	2.008986e+00	0.000000e+00	
4.339121e-01	5.591460e-02	9.650864e-01	0.000000e+00	0.000000e+00	2.412329e+00	0.000000e+00	9.649315e-01	9.998395e-01	0.000000e+00	-4.995906e-01	2.957675e-08	3.720197e-03	-1.783042e-04	2.654906e+03	1.968473e+00	0.000000e+00	
4.728433e-01	5.384781e-02	9.684703e-01	0.000000e+00	0.000000e+00	2.420770e+00	0.000000e+00	9.683078e-01	9.998322e-01	0.000000e+00	-4.514911e-01	2.957658e-08	3.560401e-03	-2.056286e-04	2.623538e+03	1.929261e+00	0.000000e+00	
5.121166e-01	5.139795e-02	9.716893e-01	0.000000e+00	0.000000e+00	2.428799e+00	0.000000e+00	9.715196e-01	9.998253e-01	0.000000e+00	-4.057359e-01	2.957643e-08	3.409040e-03	-2.267053e-04	2.592777e+03	1.891379e+00	0.000000e+00	
5.512916e-01	4.863091e-02	9.747387e-01	0.000000e+00	0.000000e+00	2.436405e+00	0.000000e+00	9.745619e-01	9.998186e-01	0.000000e+00	-3.623945e-01	2.957627e-08	3.265863e-03	-2.425526e-04	2.562887e+03	1.854824e+00	0.000000e+00	
5.899328e-01	4.561861e-02	9.776230e-01	0.000000e+00	0.000000e+00	2.443598e+00	0.000000e+00	9.774393e-01	9.998121e-01	0.000000e+00	-3.214027e-01	2.957613e-08	3.130261e-03	-2.540846e-04	2.533978e+03	1.819511e+00	0.000000e+00	
6.276283e-01	4.243463e-02	9.803470e-01	0.000000e+00	0.000000e+00	2.450391e+00	0.000000e+00	9.801565e-01	9.998057e-01	0.000000e+00	-2.826937e-01	2.957598e-08	3.001465e-03	-2.620946e-04	2.506179e+03	1.785310e+00	0.000000e+00	
6.640066e-01	3.915032e-02	9.829231e-01	0.000000e+00	0.000000e+00	2.456815e+00	0.000000e+00	9.827259e-01	9.997993e-01	0.000000e+00	-2.460894e-01	2.957583e-08	2.878452e-03	-2.672288e-04	2.479470e+03	1.752009e+00	0.000000e+00	
6.987499e-01	3.583186e-02	9.853637e-01	0.000000e+00	0.000000e+00	2.462899e+00	0.000000e+00	9.851596e-01	9.997929e-01	0.000000e+00	-2.114179e-01	2.957569e-08	2.760124e-03	-2.699937e-04	2.453833e+03	1.719360e+00	0.000000e+00	
7.316032e-01	3.253806e-02	9.876853e-01	0.000000e+00	0.000000e+00	2.468686e+00	0.000000e+00	9.874743e-01	9.997864e-01	0.000000e+00	-1.784424e-01	2.957554e-08	2.645302e-03	-2.707597e-04	2.429146e+03	1.687066e+00	0.000000e+00	
7.623778e-01	2.931924e-02	9.899025e-01	0.000000e+00	0.000000e+00	2.474211e+00	0.000000e+00	9.896844e-01	9.997797e-01	0.000000e+00	-1.469580e-01	2.957539e-08	2.532942e-03	-2.697939e-04	2.405334e+03	1.654846e+00	0.000000e+00	
7.909518e-01	2.621660e-02	9.920288e-01	0.000000e+00	0.000000e+00	2.479508e+00	0.000000e+00	9.918033e-01	9.997727e-01	0.000000e+00	-1.167715e-01	2.957523e-08	2.422183e-03	-2.672870e-04	2.382367e+03	1.622450e+00	0.000000e+00	
8.172658e-01	2.326236e-02	9.940749e-01	0.000000e+00	0.000000e+00	2.484605e+00	0.000000e+00	9.938419e-01	9.997656e-01	0.000000e+00	-8.772932e-02	2.957507e-08	2.312451e-03	-2.633863e-04	2.360320e+03	1.589696e+00	0.000000e+00	
8.413160e-01	2.048016e-02	9.960485e-01	0.000000e+00	0.000000e+00	2.489520e+00	0.000000e+00	9.958081e-01	9.997586e-01	0.000000e+00	-5.971871e-02	2.957491e-08	2.203434e-03	-2.582160e-04	2.339318e+03	1.556472e+00	0.000000e+00	
8.631457e-01	1.788578e-02	9.979527e-01	0.000000e+00	0.000000e+00	2.494263e+00	0.000000e+00	9.977050e-01	9.997518e-01	0.000000e+00	-3.269451e-02	2.957475e-08	2.094923e-03	-2.518780e-04	2.319412e+03	1.522685e+00	0.000000e+00	
8.828360e-01	1.548810e-02	9.997893e-01	0.000000e+00	0.000000e+00	2.498835e+00	0.000000e+00	9.995342e-01	9.997449e-01	0.000000e+00	-6.636054e-03	2.957459e-08	1.986699e-03	-2.444510e-04	2.300443e+03	1.488227e+00	0.000000e+00	
9.004963e-01	1.329003e-02	1.001556e+00	0.000000e+00	0.000000e+00	2.503232e+00	0.000000e+00	1.001293e+00	9.997374e-01	0.000000e+00	1.841943e-02	2.957442e-08	1.878710e-03	-2.360217e-04	2.282232e+03	1.453032e+00	0.000000e+00	
9.162555e-01	1.128962e-02	1.003249e+00	0.000000e+00	0.000000e+00	2.507444e+00	0.000000e+00	1.002978e+00	9.997291e-01	0.000000e+00	4.241910e-02	2.957424e-08	1.771205e-03	-2.267094e-04	2.264780e+03	1.417143e+00	0.000000e+00	
9.302548e-01	9.481022e-03	1.004866e+00	0.000000e+00	0.000000e+00	2.511460e+00	0.000000e+00	1.004584e+00	9.997196e-01	0.000000e+00	6.530480e-02	2.957402e-08	1.664805e-03	-2.166810e-04	2.248441e+03	1.380758e+00	0.000000e+00	
9.426407e-01	7.855481e-03	1.006401e+00	0.000000e+00	0.000000e+00	2.515270e+00	0.000000e+00	1.006108e+00	9.997087e-01	0.000000e+00	8.701303e-02	2.957377e-08	1.560600e-03	-2.061683e-04	2.234117e+03	1.344300e+00	0.000000e+00	
9.535602e-01	6.402178e-03	1.007854e+00	0.000000e+00	0.000000e+00	2.518867e+00	0.000000e+00	1.007547e+00	9.996951e-01	0.000000e+00	1.075129e-01	2.957346e-08	1.460440e-03	-1.955096e-04	2.223676e+03	1.308599e+00	0.000000e+00	
9.631568e-01	5.108981e-03	1.009226e+00	0.000000e+00	0.000000e+00	2.522244e+00	0.000000e+00	1.008898e+00	9.996752e-01	0.000000e+00	1.267580e-01	2.957301e-08	1.367759e-03	-1.852641e-04	2.221476e+03	1.275358e+00	0.000000e+00	
9.715675e-01	3.963073e-03	1.010525e+00	0.000000e+00	0.000000e+00	2.525399e+00	0.000000e+00	1.010159e+00	9.996384e-01	0.000000e+00	1.447329e-01	2.957217e-08	1.289867e-03	-1.765339e-04	2.238728e+03	1.248449e+00	0.000000e+00	
9.789211e-01	2.951446e-03	1.011775e+00	0.000000e+00	0.000000e+00	2.528322e+00	0.000000e+00	1.011329e+00	9.995596e-01	0.000000e+00	1.613942e-01	2.957038e-08	1.244969e-03	-1.719512e-04	2.305477e+03	1.237744e+00	0.000000e+00	
9.853369e-01	2.061293e-03	1.013013e+00	0.000000e+00	0.000000e+00	2.531003e+00	0.000000e+00	1.012401e+00	9.993959e-01	0.000000e+00	1.766667e-01	2.956666e-08	1.282061e-03	-1.784989e-04	2.499195e+03	1.269209e+00	0.000000e+00	
9.909241e-01	1.280290e-03	1.014477e+00	0.000000e+00	0.000000e+00	2.534035e+00	0.000000e+00	1.013614e+00	9.991494e-01	0.000000e+00	1.939459e-01	2.956105e-08	1.534226e-03	-2.151118e-04	3.005003e+03	1.405244e+00	0.000000e+00	
9.957821e-01	5.967887e-04	1.015080e+00	0.000000e+00	0.000000e+00	2.535565e+00	0.000000e+00	1.014226e+00	9.991589e-01	0.000000e+00	2.026640e-01	2.956126e-08	2.336973e-03	-3.296523e-04	4.228381e+03	1.757126e+00	0.000000e+00	
1	2
2	3
58	59
59	60
60	61
61	62
62	63
63	64
64	65
65	66
66	67
67	68
68	69
69	70
70	71
71	72
72	73
73	74
74	75
75	76
76	77
77	78
78	79
79	80
80	81
81	82
82	83
83	84
84	85
85	86
86	87
87	88
88	89
89	90
90	91
91	92
92	93
93	94
94	95
95	96
96	97
97	98
98	99
99	100
100	101
101	102
102	103
103	104
104	105
105	106
106	107
107	108
108	109
109	110
110	111
111	112
112	113
113	114
114	115
115	116
116	117
117	118
118	119
119	120
120	121
3	4
4	5
5	6
6	7
7	8
8	9
9	10
10	11
11	12
12	13
13	14
14	15
15	16
16	17
17	18
18	19
19	20
20	21
21	22
22	23
23	24
24	25
25	26
26	27
27	28
28	29
29	30
30	31
31	32
32	33
33	34
34	35
35	36
36	37
37	38
38	39
39	40
40	41
41	42
42	43
43	44
44	45
45	46
46	47
47	48
48	49
49	50
50	51
51	52
52	53
53	54
54	55
55	56
56	57
57	58
121	122
122	123
123	124
124	125
125	126
126	127
127	128
128	1
