TITLE = "Visualization of the solution"
VARIABLES = "x","y","Density","Momentum_x","Momentum_y","Energy","Pressure","Temperature","Mach","Pressure_Coefficient"
ZONE NODES= 14576, ELEMENTS= 14336, DATAPACKING=POINT, ZONETYPE=FEQUADRILATERAL
5.010000e+02	5.352203e-08	9.999994e-01	3.746868e-01	-1.959612e-03	2.570197e+00	1.000000e+00	1.000001e+00	3.166726e-01	-6.500069e-07	
4.052710e+02	5.352203e-08	1.000000e+00	3.746860e-01	-1.959051e-03	2.570197e+00	1.000000e+00	1.000000e+00	3.166718e-01	-4.227873e-07	
3.278693e+02	5.352203e-08	1.000001e+00	3.746916e-01	-1.958305e-03	2.570199e+00	1.000000e+00	9.999995e-01	3.166764e-01	1.073694e-08	
2.652863e+02	5.352203e-08	1.000001e+00	3.746950e-01	-1.957390e-03	2.570200e+00	1.000000e+00	9.999992e-01	3.166793e-01	3.269418e-07	
2.146849e+02	5.352203e-08	1.000001e+00	3.746957e-01	-1.956330e-03	2.570200e+00	1.000000e+00	9.999995e-01	3.166799e-01	6.403079e-07	
1.737712e+02	5.352203e-08	1.000001e+00	3.747015e-01	-1.955047e-03	2.570203e+00	1.000000e+00	9.999990e-01	3.166847e-01	1.156389e-06	
1.406904e+02	5.352203e-08	1.000001e+00	3.746962e-01	-1.953489e-03	2.570201e+00	1.000000e+00	9.999996e-01	3.166803e-01	1.807003e-06	
1.139430e+02	5.352203e-08	1.000000e+00	3.746977e-01	-1.951588e-03	2.570201e+00	1.000000e+00	9.999997e-01	3.166815e-01	2.512195e-06	
9.231638e+01	5.352203e-08	9.999973e-01	3.746620e-01	-1.949208e-03	2.570189e+00	1.000000e+00	1.000003e+00	3.166518e-01	3.516262e-06	
7.483022e+01	5.352203e-08	9.999965e-01	3.746528e-01	-1.946267e-03	2.570185e+00	1.000000e+00	1.000004e+00	3.166442e-01	5.660360e-06	
6.069179e+01	5.352203e-08	9.999932e-01	3.746184e-01	-1.942708e-03	2.570173e+00	1.000001e+00	1.000007e+00	3.166156e-01	8.328721e-06	
4.926019e+01	5.352203e-08	9.999909e-01	3.745924e-01	-1.938398e-03	2.570164e+00	1.000001e+00	1.000010e+00	3.165939e-01	1.287885e-05	
4.001717e+01	5.352203e-08	9.999887e-01	3.745627e-01	-1.933141e-03	2.570155e+00	1.000001e+00	1.000013e+00	3.165691e-01	1.932624e-05	
3.254374e+01	5.352203e-08	9.999858e-01	3.745261e-01	-1.926727e-03	2.570143e+00	1.000002e+00	1.000016e+00	3.165384e-01	2.945938e-05	
2.650110e+01	5.352203e-08	9.999865e-01	3.745212e-01	-1.919000e-03	2.570144e+00	1.000003e+00	1.000017e+00	3.165340e-01	4.513640e-05	
2.161534e+01	5.352203e-08	9.999864e-01	3.745031e-01	-1.909668e-03	2.570141e+00	1.000005e+00	1.000018e+00	3.165184e-01	6.840096e-05	
1.766495e+01	5.352203e-08	9.999920e-01	3.745253e-01	-1.898337e-03	2.570155e+00	1.000007e+00	1.000015e+00	3.165358e-01	1.039426e-04	
1.447088e+01	5.352203e-08	9.999971e-01	3.745379e-01	-1.884562e-03	2.570169e+00	1.000011e+00	1.000014e+00	3.165450e-01	1.562517e-04	
1.188831e+01	5.352203e-08	1.000004e+00	3.745542e-01	-1.867953e-03	2.570188e+00	1.000016e+00	1.000012e+00	3.165568e-01	2.343850e-04	
9.800175e+00	5.352203e-08	1.000013e+00	3.745637e-01	-1.847916e-03	2.570211e+00	1.000024e+00	1.000011e+00	3.165620e-01	3.483286e-04	
8.111817e+00	5.352203e-08	1.000019e+00	3.745052e-01	-1.823733e-03	2.570218e+00	1.000036e+00	1.000017e+00	3.165097e-01	5.156788e-04	
6.746697e+00	5.352203e-08	1.000030e+00	3.744557e-01	-1.794800e-03	2.570241e+00	1.000053e+00	1.000023e+00	3.164632e-01	7.605332e-04	
5.642931e+00	5.352203e-08	1.000042e+00	3.743341e-01	-1.760629e-03	2.570257e+00	1.000078e+00	1.000037e+00	3.163547e-01	1.112646e-03	
4.750481e+00	5.352203e-08	1.000060e+00	3.741790e-01	-1.720674e-03	2.570286e+00	1.000113e+00	1.000054e+00	3.162150e-01	1.615797e-03	
4.028892e+00	5.352203e-08	1.000086e+00	3.739697e-01	-1.674415e-03	2.570330e+00	1.000163e+00	1.000077e+00	3.160258e-01	2.325017e-03	
3.445452e+00	5.352203e-08	1.000130e+00	3.737455e-01	-1.621465e-03	2.570416e+00	1.000233e+00	1.000103e+00	3.158183e-01	3.312812e-03	
2.973712e+00	5.352203e-08	1.000202e+00	3.735597e-01	-1.561681e-03	2.570580e+00	1.000328e+00	1.000125e+00	3.156347e-01	4.667433e-03	
2.592287e+00	5.352203e-08	1.000308e+00	3.733800e-01	-1.495356e-03	2.570827e+00	1.000456e+00	1.000148e+00	3.154458e-01	6.499882e-03	
2.283886e+00	5.352203e-08	1.000474e+00	3.733815e-01	-1.423225e-03	2.571242e+00	1.000627e+00	1.000153e+00	3.153937e-01	8.930819e-03	
2.034529e+00	5.352203e-08	1.000685e+00	3.733571e-01	-1.346129e-03	2.571772e+00	1.000848e+00	1.000163e+00	3.153046e-01	1.208612e-02	
1.832911e+00	5.352203e-08	1.000951e+00	3.732714e-01	-1.264529e-03	2.572428e+00	1.001131e+00	1.000180e+00	3.151456e-01	1.611074e-02	
1.669894e+00	5.352203e-08	1.001273e+00	3.730810e-01	-1.179135e-03	2.573212e+00	1.001482e+00	1.000209e+00	3.148788e-01	2.111281e-02	
1.538086e+00	5.352203e-08	1.001541e+00	3.716053e-01	-1.091839e-03	2.573716e+00	1.001911e+00	1.000369e+00	3.135241e-01	2.721745e-02	
1.431513e+00	5.352203e-08	1.001839e+00	3.696346e-01	-1.002277e-03	2.574245e+00	1.002422e+00	1.000582e+00	3.117353e-01	3.450262e-02	
1.345344e+00	5.352203e-08	1.001936e+00	3.648210e-01	-9.109022e-04	2.573968e+00	1.003019e+00	1.001082e+00	3.075690e-01	4.301511e-02	
1.275671e+00	5.352203e-08	1.001937e+00	3.581023e-01	-8.177982e-04	2.573260e+00	1.003706e+00	1.001765e+00	3.018010e-01	5.279531e-02	
1.219338e+00	5.352203e-08	1.001680e+00	3.477104e-01	-7.258667e-04	2.571551e+00	1.004481e+00	1.002796e+00	2.929674e-01	6.383043e-02	
1.173790e+00	5.352203e-08	1.001372e+00	3.355054e-01	-6.375613e-04	2.569573e+00	1.005347e+00	1.003969e+00	2.826054e-01	7.617735e-02	
1.136961e+00	5.352203e-08	1.001015e+00	3.213856e-01	-5.529711e-04	2.567346e+00	1.006301e+00	1.005281e+00	2.706317e-01	8.977014e-02	
1.107184e+00	5.352203e-08	1.000662e+00	3.056571e-01	-4.752228e-04	2.565048e+00	1.007346e+00	1.006680e+00	2.572989e-01	1.046533e-01	
1.083108e+00	5.352203e-08	1.000422e+00	2.894060e-01	-4.014937e-04	2.563072e+00	1.008485e+00	1.008059e+00	2.435105e-01	1.208755e-01	
1.063641e+00	5.352203e-08	1.000248e+00	2.717920e-01	-3.339410e-04	2.561234e+00	1.009723e+00	1.009473e+00	2.285694e-01	1.385172e-01	
1.047901e+00	5.352203e-08	1.000224e+00	2.534795e-01	-2.744658e-04	2.559818e+00	1.011080e+00	1.010853e+00	2.130286e-01	1.578414e-01	
1.035174e+00	5.352203e-08	1.000301e+00	2.333260e-01	-2.204261e-04	2.558628e+00	1.012566e+00	1.012262e+00	1.959396e-01	1.790230e-01	
1.024884e+00	5.352203e-08	1.000560e+00	2.105447e-01	-1.695014e-04	2.557860e+00	1.014283e+00	1.013716e+00	1.766361e-01	2.034775e-01	
1.016564e+00	5.352203e-08	1.000956e+00	1.826382e-01	-1.184427e-04	2.557316e+00	1.016262e+00	1.015291e+00	1.530444e-01	2.316652e-01	
1.009837e+00	5.352203e-08	1.000717e+00	1.455340e-01	-6.682928e-05	2.554981e+00	1.017759e+00	1.017030e+00	1.218771e-01	2.530040e-01	
1.004398e+00	5.352203e-08	1.006516e+00	8.727832e-02	-9.814322e-06	2.567838e+00	1.025622e+00	1.018982e+00	7.260030e-02	3.650102e-01	
1.000000e+00	5.352203e-08	1.007042e+00	6.949284e-03	5.474664e-06	2.568115e+00	1.027236e+00	1.020053e+00	5.774538e-03	3.880136e-01	
9.957821e-01	-5.967887e-04	1.002226e+00	8.074095e-02	1.143587e-02	2.556866e+00	1.021419e+00	1.019151e+00	6.811738e-02	3.051447e-01	
9.909241e-01	-1.280290e-03	1.002899e+00	1.574179e-01	2.207123e-02	2.561303e+00	1.019482e+00	1.016536e+00	1.328615e-01	2.775498e-01	
9.853369e-01	-2.061293e-03	1.002247e+00	2.100687e-01	2.924687e-02	2.562506e+00	1.016026e+00	1.013748e+00	1.776341e-01	2.283040e-01	
9.789211e-01	-2.951446e-03	1.002378e+00	2.440545e-01	3.370836e-02	2.565117e+00	1.013936e+00	1.011530e+00	2.065405e-01	1.985301e-01	
9.715675e-01	-3.963073e-03	1.002168e+00	2.677323e-01	3.664276e-02	2.566371e+00	1.011975e+00	1.009786e+00	2.267834e-01	1.706036e-01	
9.631568e-01	-5.108981e-03	1.001949e+00	2.862138e-01	3.876817e-02	2.567322e+00	1.010277e+00	1.008311e+00	2.426227e-01	1.464084e-01	
9.535602e-01	-6.402178e-03	1.001643e+00	3.014695e-01	4.035795e-02	2.567862e+00	1.008673e+00	1.007018e+00	2.557436e-01	1.235508e-01	
9.426407e-01	-7.855481e-03	1.001274e+00	3.143091e-01	4.152292e-02	2.568082e+00	1.007155e+00	1.005874e+00	2.668243e-01	1.019374e-01	
9.302548e-01	-9.481022e-03	1.000821e+00	3.252374e-01	4.233095e-02	2.567955e+00	1.005685e+00	1.004860e+00	2.762962e-01	8.099314e-02	
9.162555e-01	-1.128962e-02	1.000300e+00	3.346811e-01	4.283825e-02	2.567539e+00	1.004253e+00	1.003952e+00	2.845177e-01	6.059141e-02	
9.004963e-01	-1.329003e-02	9.997143e-01	3.429793e-01	4.308834e-02	2.566873e+00	1.002844e+00	1.003131e+00	2.917760e-01	4.051956e-02	
8.828360e-01	-1.548810e-02	9.990756e-01	3.503780e-01	4.311181e-02	2.565996e+00	1.001451e+00	1.002377e+00	2.982784e-01	2.066857e-02	
8.631457e-01	-1.788578e-02	9.983880e-01	3.570724e-01	4.293169e-02	2.564938e+00	1.000065e+00	1.001680e+00	3.041901e-01	9.229549e-04	
8.413160e-01	-2.048016e-02	9.976570e-01	3.631989e-01	4.256253e-02	2.563720e+00	9.986801e-01	1.001026e+00	3.096268e-01	-1.880300e-02	
8.172658e-01	-2.326236e-02	9.968839e-01	3.688828e-01	4.201542e-02	2.562359e+00	9.972895e-01	1.000407e+00	3.146954e-01	-3.861487e-02	
7.909518e-01	-2.621660e-02	9.960711e-01	3.742062e-01	4.129350e-02	2.560863e+00	9.958865e-01	9.998147e-01	3.194663e-01	-5.860172e-02	
7.623778e-01	-2.931924e-02	9.952163e-01	3.792625e-01	4.039677e-02	2.559244e+00	9.944632e-01	9.992433e-01	3.240205e-01	-7.887802e-02	
7.316032e-01	-3.253806e-02	9.943191e-01	3.841041e-01	3.931492e-02	2.557497e+00	9.930119e-01	9.986854e-01	3.284036e-01	-9.955315e-02	
6.987499e-01	-3.583186e-02	9.933754e-01	3.888073e-01	3.803289e-02	2.555628e+00	9.915240e-01	9.981363e-01	3.326826e-01	-1.207496e-01	
6.640066e-01	-3.915032e-02	9.923841e-01	3.933917e-01	3.652155e-02	2.553626e+00	9.899927e-01	9.975903e-01	3.368750e-01	-1.425650e-01	
6.276283e-01	-4.243463e-02	9.913414e-01	3.979247e-01	3.474765e-02	2.551500e+00	9.884108e-01	9.970438e-01	3.410406e-01	-1.651014e-01	
5.899328e-01	-4.561861e-02	9.902491e-01	4.023926e-01	3.266237e-02	2.549238e+00	9.867767e-01	9.964935e-01	3.451678e-01	-1.883807e-01	
5.512916e-01	-4.863091e-02	9.891076e-01	4.068480e-01	3.021621e-02	2.546861e+00	9.850903e-01	9.959385e-01	3.493035e-01	-2.124052e-01	
5.121166e-01	-5.139795e-02	9.879253e-01	4.112428e-01	2.734813e-02	2.544372e+00	9.833597e-01	9.953786e-01	3.534062e-01	-2.370605e-01	
4.728433e-01	-5.384781e-02	9.867091e-01	4.156157e-01	2.400360e-02	2.541810e+00	9.815945e-01	9.948164e-01	3.575118e-01	-2.622077e-01	
4.339121e-01	-5.591460e-02	9.854748e-01	4.198731e-01	2.012396e-02	2.539186e+00	9.798139e-01	9.942557e-01	3.615411e-01	-2.875734e-01	
3.957488e-01	-5.754285e-02	9.842370e-01	4.240278e-01	1.566516e-02	2.536561e+00	9.780389e-01	9.937026e-01	3.655094e-01	-3.128613e-01	
3.587470e-01	-5.869148e-02	9.830178e-01	4.279385e-01	1.058811e-02	2.533949e+00	9.762976e-01	9.931637e-01	3.692993e-01	-3.376679e-01	
3.232528e-01	-5.933656e-02	9.818365e-01	4.316199e-01	4.872854e-03	2.531426e+00	9.746173e-01	9.926472e-01	3.729310e-01	-3.616056e-01	
2.895540e-01	-5.947265e-02	9.807177e-01	4.349004e-01	-1.490999e-03	2.529005e+00	9.730303e-01	9.921614e-01	3.762644e-01	-3.842142e-01	
2.578733e-01	-5.911242e-02	9.796797e-01	4.377932e-01	-8.499592e-03	2.526763e+00	9.715630e-01	9.917149e-01	3.793231e-01	-4.051180e-01	
2.283666e-01	-5.828472e-02	9.787447e-01	4.401697e-01	-1.614058e-02	2.524717e+00	9.702422e-01	9.913128e-01	3.820086e-01	-4.239344e-01	
2.011248e-01	-5.703151e-02	9.779268e-01	4.420888e-01	-2.440340e-02	2.522952e+00	9.690883e-01	9.909621e-01	3.843893e-01	-4.403721e-01	
1.761797e-01	-5.540400e-02	9.772410e-01	4.434082e-01	-3.327187e-02	2.521460e+00	9.681196e-01	9.906661e-01	3.863613e-01	-4.541731e-01	
1.535115e-01	-5.345876e-02	9.766960e-01	4.441310e-01	-4.274199e-02	2.520289e+00	9.673496e-01	9.904306e-01	3.879516e-01	-4.651423e-01	
1.330575e-01	-5.125403e-02	9.763031e-01	4.440956e-01	-5.280385e-02	2.519415e+00	9.667933e-01	9.902593e-01	3.890467e-01	-4.730680e-01	
1.147221e-01	-4.884662e-02	9.760701e-01	4.433551e-01	-6.347988e-02	2.518909e+00	9.664615e-01	9.901558e-01	3.897280e-01	-4.777939e-01	
9.838552e-02	-4.628967e-02	9.760090e-01	4.417081e-01	-7.477353e-02	2.518744e+00	9.663716e-01	9.901257e-01	3.898590e-01	-4.790748e-01	
8.391231e-02	-4.363107e-02	9.761358e-01	4.391416e-01	-8.672497e-02	2.518995e+00	9.665449e-01	9.901746e-01	3.894776e-01	-4.766066e-01	
7.115831e-02	-4.091264e-02	9.764692e-01	4.354578e-01	-9.935251e-02	2.519675e+00	9.670098e-01	9.903126e-01	3.884692e-01	-4.699834e-01	
5.997667e-02	-3.816999e-02	9.770401e-01	4.305987e-01	-1.127093e-01	2.520897e+00	9.678038e-01	9.905466e-01	3.868556e-01	-4.586721e-01	
5.022241e-02	-3.543267e-02	9.778838e-01	4.242359e-01	-1.267826e-01	2.522693e+00	9.689805e-01	9.908953e-01	3.844308e-01	-4.419086e-01	
4.175588e-02	-3.272472e-02	9.790495e-01	4.161616e-01	-1.415716e-01	2.525199e+00	9.706058e-01	9.913757e-01	3.811122e-01	-4.187536e-01	
3.444509e-02	-3.006547e-02	9.805950e-01	4.059752e-01	-1.569807e-01	2.528513e+00	9.727636e-01	9.920136e-01	3.766560e-01	-3.880136e-01	
2.816724e-02	-2.747033e-02	9.825941e-01	3.933545e-01	-1.728761e-01	2.532820e+00	9.755511e-01	9.928322e-01	3.708994e-01	-3.483019e-01	
2.280944e-02	-2.495170e-02	9.851261e-01	3.778174e-01	-1.889559e-01	2.538281e+00	9.790833e-01	9.938660e-01	3.635289e-01	-2.979819e-01	
1.826886e-02	-2.251990e-02	9.882732e-01	3.589424e-01	-2.047713e-01	2.545082e+00	9.834732e-01	9.951430e-01	3.542609e-01	-2.354431e-01	
1.445220e-02	-2.018403e-02	9.921089e-01	3.363684e-01	-2.196674e-01	2.553399e+00	9.888233e-01	9.966882e-01	3.428036e-01	-1.592255e-01	
1.127516e-02	-1.795263e-02	9.966752e-01	3.097955e-01	-2.326831e-01	2.563289e+00	9.951927e-01	9.985126e-01	3.287889e-01	-6.848580e-02	
8.660978e-03	-1.583433e-02	1.001948e+00	2.793278e-01	-2.426793e-01	2.574721e+00	1.002558e+00	1.000609e+00	3.120237e-01	3.644619e-02	
6.539262e-03	-1.383810e-02	1.007820e+00	2.454785e-01	-2.483785e-01	2.587442e+00	1.010776e+00	1.002932e+00	2.924225e-01	1.535102e-01	
4.844550e-03	-1.197282e-02	1.014081e+00	2.093570e-01	-2.486437e-01	2.600998e+00	1.019562e+00	1.005404e+00	2.701692e-01	2.786803e-01	
3.515320e-03	-1.024671e-02	1.020437e+00	1.725657e-01	-2.427124e-01	2.614728e+00	1.028509e+00	1.007910e+00	2.456811e-01	4.061384e-01	
2.493434e-03	-8.666020e-03	1.026552e+00	1.370609e-01	-2.305914e-01	2.627913e+00	1.037146e+00	1.010320e+00	2.197178e-01	5.291843e-01	
1.724623e-03	-7.234077e-03	1.032111e+00	1.046601e-01	-2.130295e-01	2.639869e+00	1.045031e+00	1.012518e+00	1.931517e-01	6.415180e-01	
1.159193e-03	-5.950300e-03	1.036899e+00	7.671745e-02	-1.914295e-01	2.650138e+00	1.051852e+00	1.014421e+00	1.668946e-01	7.386889e-01	
7.531893e-04	-4.810177e-03	1.040822e+00	5.389026e-02	-1.674853e-01	2.658530e+00	1.057464e+00	1.015989e+00	1.417372e-01	8.186356e-01	
4.691284e-04	-3.805771e-03	1.043898e+00	3.616979e-02	-1.428470e-01	2.665097e+00	1.061879e+00	1.017225e+00	1.182863e-01	8.815329e-01	
2.762360e-04	-2.926719e-03	1.046217e+00	2.305041e-02	-1.188319e-01	2.670043e+00	1.065216e+00	1.018160e+00	9.690803e-02	9.290810e-01	
1.500786e-04	-2.161300e-03	1.047906e+00	1.377168e-02	-9.632652e-02	2.673643e+00	1.067650e+00	1.018842e+00	7.774992e-02	9.637540e-01	
7.180327e-05	-1.497377e-03	1.049093e+00	7.516632e-03	-7.581605e-02	2.676177e+00	1.069364e+00	1.019322e+00	6.079267e-02	9.881734e-01	
2.721276e-05	-9.231024e-04	1.049898e+00	3.536239e-03	-5.746997e-02	2.677895e+00	1.070526e+00	1.019648e+00	4.590133e-02	1.004728e+00	
5.818606e-06	-4.273592e-04	1.050375e+00	1.205514e-03	-4.120636e-02	2.678896e+00	1.071235e+00	1.019859e+00	3.284516e-02	1.014823e+00	
0.000000e+00	0.000000e+00	1.050645e+00	-1.004759e-05	-2.641367e-02	2.679452e+00	1.071648e+00	1.019990e+00	2.103830e-02	1.020707e+00	
5.818606e-06	4.273592e-04	1.050877e+00	-3.523114e-04	-1.163893e-02	2.679970e+00	1.071962e+00	1.020065e+00	9.272192e-03	1.025185e+00	
2.721276e-05	9.231024e-04	1.050946e+00	2.755503e-04	4.595303e-03	2.680136e+00	1.072050e+00	1.020081e+00	3.665487e-03	1.026438e+00	
7.180327e-05	1.497377e-03	1.050781e+00	2.275813e-03	2.300192e-02	2.679788e+00	1.071813e+00	1.020016e+00	1.840771e-02	1.023065e+00	
1.500786e-04	2.161300e-03	1.050320e+00	6.260182e-03	4.380901e-02	2.678807e+00	1.071150e+00	1.019832e+00	3.526168e-02	1.013608e+00	
2.762360e-04	2.926719e-03	1.049446e+00	1.298776e-02	6.696725e-02	2.676946e+00	1.069891e+00	1.019482e+00	5.440844e-02	9.956829e-01	
4.691284e-04	3.805771e-03	1.048020e+00	2.332130e-02	9.211011e-02	2.673904e+00	1.067839e+00	1.018911e+00	7.590981e-02	9.664396e-01	
7.531893e-04	4.810177e-03	1.045893e+00	3.810857e-02	1.184412e-01	2.669363e+00	1.064785e+00	1.018063e+00	9.964488e-02	9.229337e-01	
1.159193e-03	5.950300e-03	1.042938e+00	5.799887e-02	1.447239e-01	2.663043e+00	1.060556e+00	1.016892e+00	1.252918e-01	8.626840e-01	
1.724623e-03	7.234077e-03	1.039086e+00	8.317310e-02	1.692952e-01	2.654777e+00	1.055063e+00	1.015376e+00	1.522529e-01	7.844311e-01	
2.493434e-03	8.666020e-03	1.034368e+00	1.131697e-01	1.903975e-01	2.644622e+00	1.048363e+00	1.013530e+00	1.797629e-01	6.889860e-01	
3.515320e-03	1.024671e-02	1.028939e+00	1.467935e-01	2.064645e-01	2.632895e+00	1.040684e+00	1.011414e+00	2.069035e-01	5.795867e-01	
4.844550e-03	1.197282e-02	1.023065e+00	1.823507e-01	2.165699e-01	2.620184e+00	1.032404e+00	1.009129e+00	2.328214e-01	4.616334e-01	
6.539262e-03	1.383810e-02	1.017071e+00	2.179075e-01	2.204819e-01	2.607176e+00	1.023974e+00	1.006787e+00	2.567251e-01	3.415345e-01	
8.660978e-03	1.583433e-02	1.011259e+00	2.517769e-01	2.187432e-01	2.594540e+00	1.015816e+00	1.004506e+00	2.781174e-01	2.253112e-01	
1.127516e-02	1.795263e-02	1.005863e+00	2.827291e-01	2.123540e-01	2.582780e+00	1.008252e+00	1.002375e+00	2.967489e-01	1.175575e-01	
1.445220e-02	2.018403e-02	1.001022e+00	3.101074e-01	2.025175e-01	2.572223e+00	1.001481e+00	1.000458e+00	3.126353e-01	2.110142e-02	
1.826886e-02	2.251990e-02	9.968074e-01	3.337264e-01	1.903859e-01	2.563015e+00	9.955875e-01	9.987762e-01	3.259593e-01	-6.286043e-02	
2.280944e-02	2.495170e-02	9.932122e-01	3.537292e-01	1.769088e-01	2.555153e+00	9.905630e-01	9.973327e-01	3.369935e-01	-1.344404e-01	
2.816724e-02	2.747033e-02	9.901951e-01	3.704302e-01	1.628011e-01	2.548543e+00	9.863486e-01	9.961153e-01	3.460309e-01	-1.944800e-01	
3.444509e-02	3.006547e-02	9.876944e-01	3.842092e-01	1.485643e-01	2.543053e+00	9.828608e-01	9.951062e-01	3.533493e-01	-2.441671e-01	
4.175588e-02	3.272472e-02	9.856498e-01	3.955343e-01	1.345544e-01	2.538568e+00	9.800085e-01	9.942766e-01	3.592713e-01	-2.848016e-01	
5.022241e-02	3.543267e-02	9.839999e-01	4.047459e-01	1.209580e-01	2.534945e+00	9.777077e-01	9.936054e-01	3.639924e-01	-3.175799e-01	
5.997667e-02	3.816999e-02	9.826912e-01	4.121359e-01	1.078767e-01	2.532056e+00	9.758842e-01	9.930731e-01	3.676704e-01	-3.435575e-01	
7.115831e-02	4.091264e-02	9.816769e-01	4.179689e-01	9.536231e-02	2.529799e+00	9.744751e-01	9.926638e-01	3.704500e-01	-3.636313e-01	
8.391231e-02	4.363107e-02	9.809251e-01	4.225347e-01	8.344529e-02	2.528130e+00	9.734307e-01	9.923599e-01	3.725083e-01	-3.785099e-01	
9.838552e-02	4.628967e-02	9.804072e-01	4.259714e-01	7.210957e-02	2.526974e+00	9.727132e-01	9.921523e-01	3.739005e-01	-3.887315e-01	
1.147221e-01	4.884662e-02	9.801018e-01	4.283719e-01	6.133460e-02	2.526268e+00	9.722938e-01	9.920334e-01	3.746531e-01	-3.947066e-01	
1.330575e-01	5.125403e-02	9.799913e-01	4.298707e-01	5.111248e-02	2.525986e+00	9.721490e-01	9.919976e-01	3.748390e-01	-3.967697e-01	
1.535115e-01	5.345876e-02	9.800651e-01	4.306033e-01	4.144011e-02	2.526125e+00	9.722613e-01	9.920375e-01	3.745383e-01	-3.951690e-01	
1.761797e-01	5.540400e-02	9.803127e-01	4.306007e-01	3.231083e-02	2.526647e+00	9.726176e-01	9.921503e-01	3.737460e-01	-3.900935e-01	
2.011248e-01	5.703151e-02	9.807217e-01	4.298735e-01	2.372914e-02	2.527503e+00	9.732016e-01	9.923321e-01	3.724458e-01	-3.817737e-01	
2.283666e-01	5.828472e-02	9.812798e-01	4.285110e-01	1.571307e-02	2.528682e+00	9.739975e-01	9.925788e-01	3.706930e-01	-3.704354e-01	
2.578733e-01	5.911242e-02	9.819750e-01	4.266112e-01	8.282484e-03	2.530171e+00	9.749868e-01	9.928835e-01	3.685535e-01	-3.563412e-01	
2.895540e-01	5.947265e-02	9.827905e-01	4.242117e-01	1.454349e-03	2.531923e+00	9.761474e-01	9.932406e-01	3.660437e-01	-3.398072e-01	
3.232528e-01	5.933656e-02	9.837055e-01	4.213423e-01	-4.756818e-03	2.533876e+00	9.774516e-01	9.936425e-01	3.631772e-01	-3.212272e-01	
3.587470e-01	5.869148e-02	9.846996e-01	4.181170e-01	-1.034511e-02	2.536003e+00	9.788717e-01	9.940816e-01	3.600410e-01	-3.009967e-01	
3.957488e-01	5.754285e-02	9.857487e-01	4.146237e-01	-1.531775e-02	2.538255e+00	9.803749e-01	9.945484e-01	3.567032e-01	-2.795822e-01	
4.339121e-01	5.591460e-02	9.868314e-01	4.109089e-01	-1.969432e-02	2.540577e+00	9.819324e-01	9.950356e-01	3.531974e-01	-2.573934e-01	
4.728433e-01	5.384781e-02	9.879253e-01	4.069929e-01	-2.350559e-02	2.542901e+00	9.835148e-01	9.955356e-01	3.495372e-01	-2.348502e-01	
5.121166e-01	5.139795e-02	9.890130e-01	4.029580e-01	-2.679719e-02	2.545201e+00	9.850995e-01	9.960431e-01	3.457904e-01	-2.122748e-01	
5.512916e-01	4.863091e-02	9.900795e-01	3.988624e-01	-2.962314e-02	2.547452e+00	9.866663e-01	9.965526e-01	3.420058e-01	-1.899534e-01	
5.899328e-01	4.561861e-02	9.911157e-01	3.947134e-01	-3.203905e-02	2.549625e+00	9.882040e-01	9.970622e-01	3.381882e-01	-1.680477e-01	
6.276283e-01	4.243463e-02	9.921130e-01	3.904890e-01	-3.409834e-02	2.551691e+00	9.897032e-01	9.975711e-01	3.343191e-01	-1.466897e-01	
6.640066e-01	3.915032e-02	9.930689e-01	3.862053e-01	-3.585439e-02	2.553652e+00	9.911626e-01	9.980804e-01	3.304119e-01	-1.258987e-01	
6.987499e-01	3.583186e-02	9.939820e-01	3.818455e-01	-3.735189e-02	2.555503e+00	9.925828e-01	9.985923e-01	3.264517e-01	-1.056662e-01	
7.316032e-01	3.253806e-02	9.948542e-01	3.773637e-01	-3.862501e-02	2.557244e+00	9.939696e-01	9.991109e-01	3.223985e-01	-8.590972e-02	
7.623778e-01	2.931924e-02	9.956865e-01	3.726937e-01	-3.969710e-02	2.558865e+00	9.953289e-01	9.996408e-01	3.181948e-01	-6.654513e-02	
7.909518e-01	2.621660e-02	9.964813e-01	3.677927e-01	-4.058578e-02	2.560371e+00	9.966681e-01	1.000187e+00	3.138033e-01	-4.746668e-02	
8.172658e-01	2.326236e-02	9.972404e-01	3.626109e-01	-4.130107e-02	2.561766e+00	9.979943e-01	1.000756e+00	3.091803e-01	-2.857323e-02	
8.413160e-01	2.048016e-02	9.979643e-01	3.570659e-01	-4.184382e-02	2.563042e+00	9.993148e-01	1.001353e+00	3.042548e-01	-9.761731e-03	
8.631457e-01	1.788578e-02	9.986511e-01	3.510566e-01	-4.220841e-02	2.564184e+00	1.000635e+00	1.001987e+00	2.989406e-01	9.048744e-03	
8.828360e-01	1.548810e-02	9.992987e-01	3.444823e-01	-4.238639e-02	2.565180e+00	1.001962e+00	1.002665e+00	2.931517e-01	2.795349e-02	
9.004963e-01	1.329003e-02	9.999021e-01	3.372019e-01	-4.236255e-02	2.566009e+00	1.003301e+00	1.003400e+00	2.867688e-01	4.703357e-02	
9.162555e-01	1.128962e-02	1.000456e+00	3.290259e-01	-4.211441e-02	2.566643e+00	1.004661e+00	1.004203e+00	2.796315e-01	6.639769e-02	
9.302548e-01	9.481022e-03	1.000949e+00	3.196945e-01	-4.160954e-02	2.567037e+00	1.006047e+00	1.005093e+00	2.715211e-01	8.614872e-02	
9.426407e-01	7.855481e-03	1.001378e+00	3.088894e-01	-4.080698e-02	2.567160e+00	1.007475e+00	1.006088e+00	2.621681e-01	1.064895e-01	
9.535602e-01	6.402178e-03	1.001730e+00	2.962135e-01	-3.965437e-02	2.566963e+00	1.008953e+00	1.007210e+00	2.512390e-01	1.275460e-01	
9.631568e-01	5.108981e-03	1.002024e+00	2.811591e-01	-3.808355e-02	2.566472e+00	1.010521e+00	1.008481e+00	2.383002e-01	1.498881e-01	
9.715675e-01	3.963073e-03	1.002234e+00	2.629063e-01	-3.598232e-02	2.565595e+00	1.012186e+00	1.009930e+00	2.226651e-01	1.736081e-01	
9.789211e-01	2.951446e-03	1.002439e+00	2.395102e-01	-3.308079e-02	2.564444e+00	1.014114e+00	1.011647e+00	2.026708e-01	2.010736e-01	
9.853369e-01	2.061293e-03	1.002313e+00	2.058903e-01	-2.866521e-02	2.561992e+00	1.016174e+00	1.013830e+00	1.740825e-01	2.304198e-01	
9.909241e-01	1.280290e-03	1.002971e+00	1.538088e-01	-2.156540e-02	2.561001e+00	1.019590e+00	1.016570e+00	1.298038e-01	2.790832e-01	
9.957821e-01	5.967887e-04	1.002320e+00	7.842084e-02	-1.110608e-02	2.556869e+00	1.021496e+00	1.019132e+00	6.615431e-02	3.062339e-01	
5.010000e+02	-3.566236e-06	9.999995e-01	3.746872e-01	-1.959612e-03	2.570197e+00	1.000000e+00	1.000000e+00	3.166729e-01	-6.504083e-07	
4.052710e+02	-3.566240e-06	1.000000e+00	3.746864e-01	-1.959051e-03	2.570197e+00	1.000000e+00	1.000000e+00	3.166721e-01	-4.226368e-07	
3.278693e+02	-3.566245e-06	1.000001e+00	3.746919e-01	-1.958305e-03	2.570199e+00	1.000000e+00	9.999995e-01	3.166767e-01	1.068330e-08	
2.652863e+02	-3.566251e-06	1.000001e+00	3.746954e-01	-1.957390e-03	2.570200e+00	1.000000e+00	9.999992e-01	3.166796e-01	3.273848e-07	
2.146849e+02	-3.566258e-06	1.000001e+00	3.746962e-01	-1.956330e-03	2.570201e+00	1.000000e+00	9.999995e-01	3.166803e-01	6.407568e-07	
1.737712e+02	-3.566267e-06	1.000001e+00	3.747020e-01	-1.955047e-03	2.570203e+00	1.000000e+00	9.999990e-01	3.166851e-01	1.156149e-06	
1.406904e+02	-3.566279e-06	1.000001e+00	3.746967e-01	-1.953489e-03	2.570201e+00	1.000000e+00	9.999996e-01	3.166807e-01	1.806633e-06	
1.139430e+02	-3.566293e-06	1.000000e+00	3.746982e-01	-1.951588e-03	2.570202e+00	1.000000e+00	9.999997e-01	3.166820e-01	2.512749e-06	
9.231638e+01	-3.566310e-06	9.999973e-01	3.746625e-01	-1.949208e-03	2.570189e+00	1.000000e+00	1.000003e+00	3.166523e-01	3.516736e-06	
7.483022e+01	-3.566332e-06	9.999965e-01	3.746535e-01	-1.946267e-03	2.570186e+00	1.000000e+00	1.000004e+00	3.166447e-01	5.660654e-06	
6.069179e+01	-3.566358e-06	9.999932e-01	3.746191e-01	-1.942708e-03	2.570174e+00	1.000001e+00	1.000007e+00	3.166162e-01	8.328750e-06	
4.926019e+01	-3.566391e-06	9.999909e-01	3.745931e-01	-1.938398e-03	2.570165e+00	1.000001e+00	1.000010e+00	3.165945e-01	1.287710e-05	
4.001717e+01	-3.566432e-06	9.999887e-01	3.745628e-01	-1.933141e-03	2.570155e+00	1.000001e+00	1.000013e+00	3.165691e-01	1.932506e-05	
3.254374e+01	-3.566482e-06	9.999857e-01	3.745259e-01	-1.926726e-03	2.570143e+00	1.000002e+00	1.000016e+00	3.165383e-01	2.945942e-05	
2.650110e+01	-3.566544e-06	9.999864e-01	3.745206e-01	-1.918999e-03	2.570144e+00	1.000003e+00	1.000017e+00	3.165335e-01	4.513624e-05	
2.161534e+01	-3.566621e-06	9.999862e-01	3.745017e-01	-1.909668e-03	2.570141e+00	1.000005e+00	1.000019e+00	3.165173e-01	6.839983e-05	
1.766495e+01	-3.566716e-06	9.999918e-01	3.745225e-01	-1.898336e-03	2.570154e+00	1.000007e+00	1.000016e+00	3.165335e-01	1.039447e-04	
1.447088e+01	-3.566834e-06	9.999967e-01	3.745342e-01	-1.884561e-03	2.570167e+00	1.000011e+00	1.000014e+00	3.165419e-01	1.562516e-04	
1.188831e+01	-3.566980e-06	1.000004e+00	3.745496e-01	-1.867953e-03	2.570186e+00	1.000016e+00	1.000013e+00	3.165529e-01	2.343848e-04	
9.800175e+00	-3.567160e-06	1.000013e+00	3.745585e-01	-1.847915e-03	2.570209e+00	1.000024e+00	1.000012e+00	3.165577e-01	3.483297e-04	
8.111817e+00	-3.567382e-06	1.000018e+00	3.745001e-01	-1.823732e-03	2.570216e+00	1.000036e+00	1.000018e+00	3.165055e-01	5.156792e-04	
6.746697e+00	-3.567658e-06	1.000030e+00	3.744506e-01	-1.794799e-03	2.570240e+00	1.000053e+00	1.000023e+00	3.164590e-01	7.605335e-04	
5.642931e+00	-3.567998e-06	1.000041e+00	3.743306e-01	-1.760628e-03	2.570256e+00	1.000078e+00	1.000037e+00	3.163517e-01	1.112648e-03	
4.750481e+00	-3.568420e-06	1.000060e+00	3.741794e-01	-1.720674e-03	2.570286e+00	1.000113e+00	1.000054e+00	3.162153e-01	1.615794e-03	
4.028892e+00	-3.568941e-06	1.000087e+00	3.739796e-01	-1.674416e-03	2.570334e+00	1.000163e+00	1.000076e+00	3.160341e-01	2.325016e-03	
3.445452e+00	-3.569585e-06	1.000132e+00	3.737703e-01	-1.621467e-03	2.570426e+00	1.000233e+00	1.000100e+00	3.158389e-01	3.312816e-03	
2.973712e+00	-3.570382e-06	1.000207e+00	3.736038e-01	-1.561686e-03	2.570596e+00	1.000328e+00	1.000121e+00	3.156713e-01	4.667428e-03	
2.592287e+00	-3.571367e-06	1.000315e+00	3.734501e-01	-1.495366e-03	2.570852e+00	1.000456e+00	1.000141e+00	3.155038e-01	6.499863e-03	
2.283886e+00	-3.572586e-06	1.000482e+00	3.734625e-01	-1.423237e-03	2.571272e+00	1.000627e+00	1.000145e+00	3.154609e-01	8.930818e-03	
2.034529e+00	-3.574094e-06	1.000693e+00	3.734326e-01	-1.346138e-03	2.571800e+00	1.000848e+00	1.000155e+00	3.153671e-01	1.208611e-02	
1.832911e+00	-3.575959e-06	1.000951e+00	3.732692e-01	-1.264523e-03	2.572427e+00	1.001131e+00	1.000179e+00	3.151438e-01	1.611071e-02	
1.669894e+00	-3.578265e-06	1.001260e+00	3.729449e-01	-1.179094e-03	2.573162e+00	1.001482e+00	1.000222e+00	3.147661e-01	2.111279e-02	
1.538086e+00	-3.581117e-06	1.001502e+00	3.712230e-01	-1.091745e-03	2.573577e+00	1.001911e+00	1.000408e+00	3.132076e-01	2.721747e-02	
1.431513e+00	-3.584644e-06	1.001764e+00	3.688909e-01	-1.002074e-03	2.573976e+00	1.002422e+00	1.000657e+00	3.111197e-01	3.450262e-02	
1.345344e+00	-3.589007e-06	1.001817e+00	3.636266e-01	-9.105419e-04	2.573541e+00	1.003019e+00	1.001201e+00	3.065803e-01	4.301528e-02	
1.275671e+00	-3.594403e-06	1.001771e+00	3.564145e-01	-8.171960e-04	2.572669e+00	1.003706e+00	1.001931e+00	3.004035e-01	5.279537e-02	
1.219338e+00	-3.601076e-06	1.001479e+00	3.456160e-01	-7.249696e-04	2.570839e+00	1.004481e+00	1.002997e+00	2.912320e-01	6.383021e-02	
1.173790e+00	-3.609330e-06	1.001147e+00	3.330829e-01	-6.363321e-04	2.568777e+00	1.005347e+00	1.004196e+00	2.805965e-01	7.617705e-02	
1.136961e+00	-3.619538e-06	1.000787e+00	3.188473e-01	-5.513378e-04	2.566545e+00	1.006301e+00	1.005510e+00	2.685249e-01	8.976983e-02	
1.107184e+00	-3.632163e-06	1.000449e+00	3.031903e-01	-4.730882e-04	2.564307e+00	1.007346e+00	1.006894e+00	2.552496e-01	1.046530e-01	
1.083108e+00	-3.647777e-06	1.000242e+00	2.872416e-01	-3.987214e-04	2.562456e+00	1.008485e+00	1.008241e+00	2.417110e-01	1.208746e-01	
1.063641e+00	-3.667089e-06	1.000117e+00	2.701703e-01	-3.302846e-04	2.560799e+00	1.009723e+00	1.009605e+00	2.272204e-01	1.385162e-01	
1.047901e+00	-3.690973e-06	1.000152e+00	2.526054e-01	-2.695714e-04	2.559599e+00	1.011079e+00	1.010925e+00	2.123015e-01	1.578399e-01	
1.035174e+00	-3.720512e-06	1.000296e+00	2.334397e-01	-2.136264e-04	2.558655e+00	1.012566e+00	1.012266e+00	1.960356e-01	1.790211e-01	
1.024884e+00	-3.757046e-06	1.000627e+00	2.119246e-01	-1.596374e-04	2.558149e+00	1.014283e+00	1.013647e+00	1.777877e-01	2.034748e-01	
1.016564e+00	-3.802231e-06	1.001106e+00	1.858655e-01	-1.020977e-04	2.557906e+00	1.016261e+00	1.015138e+00	1.557371e-01	2.316546e-01	
1.009837e+00	-3.858114e-06	1.000966e+00	1.520491e-01	-4.363709e-05	2.555937e+00	1.017755e+00	1.016773e+00	1.273176e-01	2.529472e-01	
1.004398e+00	-3.927230e-06	1.006883e+00	1.020605e-01	5.973451e-05	2.569225e+00	1.025621e+00	1.018610e+00	8.488107e-02	3.650013e-01	