TITLE = "Visualization of the solution"
VARIABLES = "x","y","Density","Momentum_x","Momentum_y","Energy","Nu_Tilde","Pressure","Temperature","Mach","Pressure_Coefficient","Laminar_Viscosity","Skin_Friction_Coefficient_x","Skin_Friction_Coefficient_y","Heat_Flux","Y_Plus","Eddy_Viscosity"
ZONE NODES= 14576, ELEMENTS= 14336, DATAPACKING=POINT, ZONETYPE=FEQUADRILATERAL
5.010000e+02	5.352203e-08	9.999999e-01	3.746829e-01	-1.964137e-03	2.570193e+00	8.884084e-08	9.999989e-01	9.999990e-01	3.166694e-01	-1.572049e-05	2.958038e-08	0.000000e+00	0.000000e+00	0.000000e+00	0.000000e+00	6.251203e-09	
4.052710e+02	5.352203e-08	1.000000e+00	3.746877e-01	-1.960915e-03	2.570195e+00	8.887979e-08	9.999990e-01	9.999987e-01	3.166734e-01	-1.392262e-05	2.958037e-08	0.000000e+00	0.000000e+00	0.000000e+00	0.000000e+00	6.261537e-09	
3.278693e+02	5.352203e-08	1.000001e+00	3.746925e-01	-1.958268e-03	2.570197e+00	8.892379e-08	9.999993e-01	9.999985e-01	3.166772e-01	-1.011926e-05	2.958036e-08	0.000000e+00	0.000000e+00	0.000000e+00	0.000000e+00	6.273227e-09	
2.652863e+02	5.352203e-08	1.000001e+00	3.746956e-01	-1.957116e-03	2.570199e+00	8.899453e-08	9.999997e-01	9.999982e-01	3.166797e-01	-4.858203e-06	2.958036e-08	0.000000e+00	0.000000e+00	0.000000e+00	0.000000e+00	6.292080e-09	
2.146849e+02	5.352203e-08	1.000002e+00	3.746984e-01	-1.956662e-03	2.570200e+00	8.912279e-08	9.999997e-01	9.999980e-01	3.166820e-01	-4.307638e-06	2.958035e-08	0.000000e+00	0.000000e+00	0.000000e+00	0.000000e+00	6.326346e-09	
1.737712e+02	5.352203e-08	1.000002e+00	3.747032e-01	-1.955725e-03	2.570202e+00	8.936111e-08	9.999997e-01	9.999977e-01	3.166861e-01	-4.561688e-06	2.958035e-08	0.000000e+00	0.000000e+00	0.000000e+00	0.000000e+00	6.390344e-09	
1.406904e+02	5.352203e-08	1.000002e+00	3.747112e-01	-1.954250e-03	2.570205e+00	8.981727e-08	9.999997e-01	9.999975e-01	3.166928e-01	-4.780487e-06	2.958034e-08	0.000000e+00	0.000000e+00	0.000000e+00	0.000000e+00	6.514157e-09	
1.139430e+02	5.352203e-08	1.000002e+00	3.747227e-01	-1.952507e-03	2.570210e+00	9.069127e-08	9.999997e-01	9.999973e-01	3.167025e-01	-4.529494e-06	2.958034e-08	0.000000e+00	0.000000e+00	0.000000e+00	0.000000e+00	6.756401e-09	
9.231638e+01	5.352203e-08	1.000003e+00	3.747374e-01	-1.950495e-03	2.570215e+00	9.245811e-08	9.999997e-01	9.999972e-01	3.167148e-01	-4.045278e-06	2.958033e-08	0.000000e+00	0.000000e+00	0.000000e+00	0.000000e+00	7.265318e-09	
7.483022e+01	5.352203e-08	1.000003e+00	3.747534e-01	-1.948052e-03	2.570221e+00	9.686932e-08	9.999998e-01	9.999973e-01	3.167284e-01	-3.074451e-06	2.958034e-08	0.000000e+00	0.000000e+00	0.000000e+00	0.000000e+00	8.648489e-09	
6.069179e+01	5.352203e-08	1.000002e+00	3.747669e-01	-1.945016e-03	2.570227e+00	1.115039e-07	9.999999e-01	9.999977e-01	3.167398e-01	-1.342145e-06	2.958035e-08	0.000000e+00	0.000000e+00	0.000000e+00	0.000000e+00	1.447848e-08	
4.926019e+01	5.352203e-08	1.000001e+00	3.747725e-01	-1.941211e-03	2.570229e+00	1.657394e-07	1.000000e+00	9.999987e-01	3.167446e-01	1.653186e-06	2.958037e-08	0.000000e+00	0.000000e+00	0.000000e+00	0.000000e+00	5.430573e-08	
4.001717e+01	5.352203e-08	1.000000e+00	3.747656e-01	-1.936406e-03	2.570228e+00	3.484923e-07	1.000000e+00	1.000000e+00	3.167389e-01	6.693944e-06	2.958041e-08	0.000000e+00	0.000000e+00	0.000000e+00	0.000000e+00	2.844951e-07	
3.254374e+01	5.352203e-08	9.999975e-01	3.747377e-01	-1.930294e-03	2.570219e+00	8.376491e-07	1.000001e+00	1.000004e+00	3.167156e-01	1.517715e-05	2.958048e-08	0.000000e+00	0.000000e+00	0.000000e+00	0.000000e+00	8.213251e-07	
2.650110e+01	5.352203e-08	9.999925e-01	3.746653e-01	-1.922525e-03	2.570195e+00	1.835292e-06	1.000002e+00	1.000010e+00	3.166550e-01	2.930878e-05	2.958062e-08	0.000000e+00	0.000000e+00	0.000000e+00	0.000000e+00	1.824551e-06	
2.161534e+01	5.352203e-08	9.999827e-01	3.745096e-01	-1.912751e-03	2.570141e+00	3.568317e-06	1.000004e+00	1.000021e+00	3.165247e-01	5.220551e-05	2.958088e-08	0.000000e+00	0.000000e+00	0.000000e+00	0.000000e+00	3.551837e-06	
1.766495e+01	5.352203e-08	9.999654e-01	3.742241e-01	-1.900644e-03	2.570041e+00	5.970377e-06	1.000006e+00	1.000041e+00	3.162857e-01	8.776004e-05	2.958133e-08	0.000000e+00	0.000000e+00	0.000000e+00	0.000000e+00	5.947436e-06	
1.447088e+01	5.352203e-08	9.999377e-01	3.737566e-01	-1.885838e-03	2.569878e+00	8.789451e-06	1.000010e+00	1.000072e+00	3.158943e-01	1.407578e-04	2.958204e-08	0.000000e+00	0.000000e+00	0.000000e+00	0.000000e+00	8.761389e-06	
1.188831e+01	5.352203e-08	9.998960e-01	3.730417e-01	-1.867837e-03	2.569627e+00	1.189418e-05	1.000015e+00	1.000119e+00	3.152957e-01	2.176752e-04	2.958311e-08	0.000000e+00	0.000000e+00	0.000000e+00	0.000000e+00	1.186233e-05	
9.800175e+00	5.352203e-08	9.998362e-01	3.719974e-01	-1.845993e-03	2.569262e+00	1.520433e-05	1.000023e+00	1.000187e+00	3.144212e-01	3.278382e-04	2.958465e-08	0.000000e+00	0.000000e+00	0.000000e+00	0.000000e+00	1.516960e-05	
8.111817e+00	5.352203e-08	9.997540e-01	3.705295e-01	-1.819583e-03	2.568750e+00	1.862796e-05	1.000034e+00	1.000280e+00	3.131916e-01	4.844577e-04	2.958677e-08	0.000000e+00	0.000000e+00	0.000000e+00	0.000000e+00	1.859088e-05	
6.746697e+00	5.352203e-08	9.996459e-01	3.685434e-01	-1.787880e-03	2.568062e+00	2.204150e-05	1.000050e+00	1.000404e+00	3.115271e-01	7.070741e-04	2.958958e-08	0.000000e+00	0.000000e+00	0.000000e+00	0.000000e+00	2.200217e-05	
5.642931e+00	5.352203e-08	9.995114e-01	3.659658e-01	-1.750219e-03	2.567180e+00	2.527022e-05	1.000072e+00	1.000561e+00	3.093655e-01	1.026901e-03	2.959316e-08	0.000000e+00	0.000000e+00	0.000000e+00	0.000000e+00	2.522853e-05	
4.750481e+00	5.352203e-08	9.993527e-01	3.627646e-01	-1.705991e-03	2.566102e+00	2.789631e-05	1.000104e+00	1.000751e+00	3.066788e-01	1.475323e-03	2.959749e-08	0.000000e+00	0.000000e+00	0.000000e+00	0.000000e+00	2.784842e-05	
4.028892e+00	5.352203e-08	9.991550e-01	3.585822e-01	-1.654640e-03	2.564713e+00	3.064091e-05	1.000146e+00	1.000992e+00	3.031664e-01	2.086618e-03	2.960297e-08	0.000000e+00	0.000000e+00	0.000000e+00	0.000000e+00	3.058899e-05	
3.445452e+00	5.352203e-08	9.989301e-01	3.534625e-01	-1.595791e-03	2.563052e+00	3.285780e-05	1.000206e+00	1.001278e+00	2.988625e-01	2.939930e-03	2.960945e-08	0.000000e+00	0.000000e+00	0.000000e+00	0.000000e+00	3.280115e-05	
2.973712e+00	5.352203e-08	9.986947e-01	3.475338e-01	-1.529641e-03	2.561195e+00	3.441962e-05	1.000290e+00	1.001597e+00	2.938718e-01	4.132624e-03	2.961672e-08	0.000000e+00	0.000000e+00	0.000000e+00	0.000000e+00	3.435779e-05	
2.592287e+00	5.352203e-08	9.984672e-01	3.409563e-01	-1.456992e-03	2.559231e+00	3.530190e-05	1.000406e+00	1.001942e+00	2.883259e-01	5.786702e-03	2.962455e-08	0.000000e+00	0.000000e+00	0.000000e+00	0.000000e+00	3.523517e-05	
2.283886e+00	5.352203e-08	9.982668e-01	3.339174e-01	-1.379074e-03	2.557259e+00	3.551254e-05	1.000564e+00	1.002302e+00	2.823794e-01	8.041586e-03	2.963273e-08	0.000000e+00	0.000000e+00	0.000000e+00	0.000000e+00	3.544191e-05	
2.034529e+00	5.352203e-08	9.981095e-01	3.265563e-01	-1.297427e-03	2.555359e+00	3.511527e-05	1.000775e+00	1.002671e+00	2.761468e-01	1.104391e-02	2.964111e-08	0.000000e+00	0.000000e+00	0.000000e+00	0.000000e+00	3.504320e-05	
1.832911e+00	5.352203e-08	9.980098e-01	3.189914e-01	-1.213702e-03	2.553602e+00	3.414896e-05	1.001049e+00	1.003045e+00	2.697262e-01	1.494131e-02	2.964962e-08	0.000000e+00	0.000000e+00	0.000000e+00	0.000000e+00	3.407790e-05	
1.669894e+00	5.352203e-08	9.979789e-01	3.112905e-01	-1.129171e-03	2.552036e+00	3.277666e-05	1.001394e+00	1.003422e+00	2.631731e-01	1.986410e-02	2.965818e-08	0.000000e+00	0.000000e+00	0.000000e+00	0.000000e+00	3.270887e-05	
1.538086e+00	5.352203e-08	9.980227e-01	3.034264e-01	-1.044716e-03	2.550672e+00	3.119264e-05	1.001819e+00	1.003803e+00	2.564644e-01	2.590815e-02	2.966684e-08	0.000000e+00	0.000000e+00	0.000000e+00	0.000000e+00	3.113014e-05	
1.431513e+00	5.352203e-08	9.981420e-01	2.952701e-01	-9.618387e-04	2.549489e+00	2.955815e-05	1.002326e+00	1.004192e+00	2.494923e-01	3.313787e-02	2.967566e-08	0.000000e+00	0.000000e+00	0.000000e+00	0.000000e+00	2.950280e-05	
1.345344e+00	5.352203e-08	9.983401e-01	2.867594e-01	-8.833439e-04	2.548485e+00	2.794781e-05	1.002920e+00	1.004588e+00	2.422051e-01	4.160262e-02	2.968464e-08	0.000000e+00	0.000000e+00	0.000000e+00	0.000000e+00	2.790120e-05	
1.275671e+00	5.352203e-08	9.986205e-01	2.778894e-01	-8.120361e-04	2.547671e+00	2.639634e-05	1.003602e+00	1.004989e+00	2.346004e-01	5.131983e-02	2.969374e-08	0.000000e+00	0.000000e+00	0.000000e+00	0.000000e+00	2.635981e-05	
1.219338e+00	5.352203e-08	9.989846e-01	2.686706e-01	-7.481090e-04	2.547057e+00	2.491144e-05	1.004371e+00	1.005392e+00	2.266894e-01	6.227393e-02	2.970290e-08	0.000000e+00	0.000000e+00	0.000000e+00	0.000000e+00	2.488606e-05	
1.173790e+00	5.352203e-08	9.994317e-01	2.591013e-01	-6.893198e-04	2.546646e+00	2.348224e-05	1.005224e+00	1.005795e+00	2.184737e-01	7.441993e-02	2.971205e-08	0.000000e+00	0.000000e+00	0.000000e+00	0.000000e+00	2.346883e-05	
1.136961e+00	5.352203e-08	9.999591e-01	2.491587e-01	-6.347959e-04	2.546430e+00	2.208462e-05	1.006155e+00	1.006196e+00	2.099374e-01	8.768811e-02	2.972114e-08	0.000000e+00	0.000000e+00	0.000000e+00	0.000000e+00	2.208366e-05	
1.107184e+00	5.352203e-08	1.000562e+00	2.387987e-01	-5.873960e-04	2.546392e+00	2.068115e-05	1.007158e+00	1.006592e+00	2.010474e-01	1.019742e-01	2.973012e-08	0.000000e+00	0.000000e+00	0.000000e+00	0.000000e+00	2.069272e-05	
1.083108e+00	5.352203e-08	1.001233e+00	2.279593e-01	-5.508921e-04	2.546505e+00	1.922975e-05	1.008222e+00	1.006980e+00	1.917560e-01	1.171261e-01	2.973891e-08	0.000000e+00	0.000000e+00	0.000000e+00	0.000000e+00	1.925342e-05	
1.063641e+00	5.352203e-08	1.001962e+00	2.165604e-01	-5.255163e-04	2.546731e+00	1.768480e-05	1.009331e+00	1.007354e+00	1.820010e-01	1.329338e-01	2.974740e-08	0.000000e+00	0.000000e+00	0.000000e+00	0.000000e+00	1.771947e-05	
1.047901e+00	5.352203e-08	1.002740e+00	2.044966e-01	-5.074877e-04	2.547026e+00	1.600143e-05	1.010469e+00	1.007709e+00	1.716989e-01	1.491497e-01	2.975542e-08	0.000000e+00	0.000000e+00	0.000000e+00	0.000000e+00	1.604523e-05	
1.035174e+00	5.352203e-08	1.003555e+00	1.916073e-01	-4.922610e-04	2.547333e+00	1.413493e-05	1.011617e+00	1.008032e+00	1.607204e-01	1.654907e-01	2.976276e-08	0.000000e+00	0.000000e+00	0.000000e+00	0.000000e+00	1.418513e-05	
1.024884e+00	5.352203e-08	1.004410e+00	1.776014e-01	-4.770533e-04	2.547599e+00	1.204366e-05	1.012759e+00	1.008312e+00	1.488249e-01	1.817625e-01	2.976909e-08	0.000000e+00	0.000000e+00	0.000000e+00	0.000000e+00	1.209671e-05	
1.016564e+00	5.352203e-08	1.005369e+00	1.618820e-01	-4.580600e-04	2.547869e+00	9.687155e-06	1.013934e+00	1.008520e+00	1.355092e-01	1.985104e-01	2.977381e-08	0.000000e+00	0.000000e+00	0.000000e+00	0.000000e+00	9.739058e-06	
1.009837e+00	5.352203e-08	1.006100e+00	1.430175e-01	-4.278142e-04	2.546983e+00	6.980357e-06	1.014727e+00	1.008575e+00	1.196277e-01	2.098039e-01	2.977505e-08	0.000000e+00	0.000000e+00	0.000000e+00	0.000000e+00	7.022744e-06	
1.004398e+00	5.352203e-08	1.009376e+00	1.135170e-01	-3.575672e-04	2.550257e+00	3.900415e-06	1.017550e+00	1.008097e+00	9.466610e-02	2.500140e-01	2.976423e-08	0.000000e+00	0.000000e+00	0.000000e+00	0.000000e+00	3.936379e-06	
1.000000e+00	5.352203e-08	1.016386e+00	0.000000e+00	0.000000e+00	2.542556e+00	0.000000e+00	1.017023e+00	1.000626e+00	0.000000e+00	2.425060e-01	2.959464e-08	4.653113e-15	1.869366e-05	3.471187e+02	1.716158e+02	0.000000e+00	
9.957821e-01	-5.967887e-04	1.015976e+00	0.000000e+00	0.000000e+00	2.537760e+00	0.000000e+00	1.015104e+00	9.991415e-01	0.000000e+00	2.151733e-01	2.956087e-08	2.666218e-03	3.761269e-04	4.382023e+03	1.877680e+00	0.000000e+00	
9.909241e-01	-1.280290e-03	1.015382e+00	0.000000e+00	0.000000e+00	2.536341e+00	0.000000e+00	1.014537e+00	9.991678e-01	0.000000e+00	2.070903e-01	2.956146e-08	1.987966e-03	2.787301e-04	3.136232e+03	1.600291e+00	0.000000e+00	
9.853369e-01	-2.061293e-03	1.013626e+00	0.000000e+00	0.000000e+00	2.532610e+00	0.000000e+00	1.013044e+00	9.994255e-01	0.000000e+00	1.858248e-01	2.956733e-08	1.801451e-03	2.508126e-04	2.629007e+03	1.504914e+00	0.000000e+00	
9.789211e-01	-2.951446e-03	1.012287e+00	0.000000e+00	0.000000e+00	2.529670e+00	0.000000e+00	1.011868e+00	9.995863e-01	0.000000e+00	1.690744e-01	2.957099e-08	1.796865e-03	2.481774e-04	2.431282e+03	1.487341e+00	0.000000e+00	
9.715675e-01	-3.963073e-03	1.010966e+00	0.000000e+00	0.000000e+00	2.526558e+00	0.000000e+00	1.010623e+00	9.996609e-01	0.000000e+00	1.513371e-01	2.957268e-08	1.854742e-03	2.538440e-04	2.354818e+03	1.497364e+00	0.000000e+00	
9.631568e-01	-5.108981e-03	1.009676e+00	0.000000e+00	0.000000e+00	2.523423e+00	0.000000e+00	1.009369e+00	9.996961e-01	0.000000e+00	1.334743e-01	2.957348e-08	1.934745e-03	2.620629e-04	2.324781e+03	1.517152e+00	0.000000e+00	
9.535602e-01	-6.402178e-03	1.008375e+00	0.000000e+00	0.000000e+00	2.520221e+00	0.000000e+00	1.008088e+00	9.997159e-01	0.000000e+00	1.152290e-01	2.957394e-08	2.022857e-03	2.708005e-04	2.314155e+03	1.540467e+00	0.000000e+00	
9.426407e-01	-7.855481e-03	1.007063e+00	0.000000e+00	0.000000e+00	2.516979e+00	0.000000e+00	1.006792e+00	9.997305e-01	0.000000e+00	9.675411e-02	2.957427e-08	2.113705e-03	2.792381e-04	2.312575e+03	1.564977e+00	0.000000e+00	
9.302548e-01	-9.481022e-03	1.005735e+00	0.000000e+00	0.000000e+00	2.513690e+00	0.000000e+00	1.005476e+00	9.997425e-01	0.000000e+00	7.801246e-02	2.957454e-08	2.204922e-03	2.869793e-04	2.315880e+03	1.589690e+00	0.000000e+00	
9.162555e-01	-1.128962e-02	1.004394e+00	0.000000e+00	0.000000e+00	2.510363e+00	0.000000e+00	1.004145e+00	9.997529e-01	0.000000e+00	5.905574e-02	2.957478e-08	2.295387e-03	2.938031e-04	2.321985e+03	1.614161e+00	0.000000e+00	
9.004963e-01	-1.329003e-02	1.003040e+00	0.000000e+00	0.000000e+00	2.507004e+00	0.000000e+00	1.002802e+00	9.997620e-01	0.000000e+00	3.991151e-02	2.957498e-08	2.384601e-03	2.995766e-04	2.329856e+03	1.638199e+00	0.000000e+00	
8.828360e-01	-1.548810e-02	1.001677e+00	0.000000e+00	0.000000e+00	2.503618e+00	0.000000e+00	1.001447e+00	9.997701e-01	0.000000e+00	2.061608e-02	2.957517e-08	2.472389e-03	3.042121e-04	2.338970e+03	1.661739e+00	0.000000e+00	
8.631457e-01	-1.788578e-02	1.000306e+00	0.000000e+00	0.000000e+00	2.500208e+00	0.000000e+00	1.000083e+00	9.997775e-01	0.000000e+00	1.186648e-03	2.957534e-08	2.558770e-03	3.076475e-04	2.349093e+03	1.684785e+00	0.000000e+00	
8.413160e-01	-2.048016e-02	9.989260e-01	0.000000e+00	0.000000e+00	2.496776e+00	0.000000e+00	9.987105e-01	9.997843e-01	0.000000e+00	-1.837103e-02	2.957549e-08	2.643912e-03	3.098347e-04	2.360118e+03	1.707389e+00	0.000000e+00	
8.172658e-01	-2.326236e-02	9.975350e-01	0.000000e+00	0.000000e+00	2.493315e+00	0.000000e+00	9.973260e-01	9.997905e-01	0.000000e+00	-3.809392e-02	2.957563e-08	2.728160e-03	3.107352e-04	2.372040e+03	1.729653e+00	0.000000e+00	
7.909518e-01	-2.621660e-02	9.961297e-01	0.000000e+00	0.000000e+00	2.489817e+00	0.000000e+00	9.959268e-01	9.997963e-01	0.000000e+00	-5.802767e-02	2.957576e-08	2.812015e-03	3.103049e-04	2.384891e+03	1.751720e+00	0.000000e+00	
7.623778e-01	-2.931924e-02	9.947042e-01	0.000000e+00	0.000000e+00	2.486267e+00	0.000000e+00	9.945069e-01	9.998017e-01	0.000000e+00	-7.825532e-02	2.957589e-08	2.896149e-03	3.084806e-04	2.398763e+03	1.773777e+00	0.000000e+00	
7.316032e-01	-3.253806e-02	9.932518e-01	0.000000e+00	0.000000e+00	2.482650e+00	0.000000e+00	9.930598e-01	9.998068e-01	0.000000e+00	-9.887061e-02	2.957600e-08	2.981384e-03	3.051593e-04	2.413777e+03	1.796044e+00	0.000000e+00	
6.987499e-01	-3.583186e-02	9.917649e-01	0.000000e+00	0.000000e+00	2.478945e+00	0.000000e+00	9.915780e-01	9.998116e-01	0.000000e+00	-1.199808e-01	2.957611e-08	3.068671e-03	3.001757e-04	2.430088e+03	1.818769e+00	0.000000e+00	
6.640066e-01	-3.915032e-02	9.902369e-01	0.000000e+00	0.000000e+00	2.475137e+00	0.000000e+00	9.900550e-01	9.998163e-01	0.000000e+00	-1.416785e-01	2.957622e-08	3.159017e-03	2.932757e-04	2.447842e+03	1.842201e+00	0.000000e+00	
6.276283e-01	-4.243463e-02	9.886613e-01	0.000000e+00	0.000000e+00	2.471211e+00	0.000000e+00	9.884842e-01	9.998208e-01	0.000000e+00	-1.640555e-01	2.957632e-08	3.253421e-03	2.840960e-04	2.467180e+03	1.866577e+00	0.000000e+00	
5.899328e-01	-4.561861e-02	9.870366e-01	0.000000e+00	0.000000e+00	2.467161e+00	0.000000e+00	9.868643e-01	9.998254e-01	0.000000e+00	-1.871331e-01	2.957643e-08	3.352726e-03	2.721422e-04	2.488147e+03	1.892082e+00	0.000000e+00	
5.512916e-01	-4.863091e-02	9.853626e-01	0.000000e+00	0.000000e+00	2.462988e+00	0.000000e+00	9.851951e-01	9.998300e-01	0.000000e+00	-2.109126e-01	2.957653e-08	3.457594e-03	2.567923e-04	2.510762e+03	1.918849e+00	0.000000e+00	
5.121166e-01	-5.139795e-02	9.836468e-01	0.000000e+00	0.000000e+00	2.458711e+00	0.000000e+00	9.834842e-01	9.998347e-01	0.000000e+00	-2.352862e-01	2.957664e-08	3.568361e-03	2.373003e-04	2.534918e+03	1.946927e+00	0.000000e+00	
4.728433e-01	-5.384781e-02	9.818988e-01	0.000000e+00	0.000000e+00	2.454353e+00	0.000000e+00	9.817412e-01	9.998396e-01	0.000000e+00	-2.601168e-01	2.957675e-08	3.685127e-03	2.128321e-04	2.560509e+03	1.976313e+00	0.000000e+00	
4.339121e-01	-5.591460e-02	9.801368e-01	0.000000e+00	0.000000e+00	2.449962e+00	0.000000e+00	9.799848e-01	9.998449e-01	0.000000e+00	-2.851395e-01	2.957687e-08	3.807562e-03	1.824915e-04	2.587290e+03	2.006913e+00	0.000000e+00	
3.957488e-01	-5.754285e-02	9.783814e-01	0.000000e+00	0.000000e+00	2.445589e+00	0.000000e+00	9.782355e-01	9.998508e-01	0.000000e+00	-3.100604e-01	2.957701e-08	3.935041e-03	1.453752e-04	2.615036e+03	2.038587e+00	0.000000e+00	
3.587470e-01	-5.869148e-02	9.766604e-01	0.000000e+00	0.000000e+00	2.441303e+00	0.000000e+00	9.765211e-01	9.998573e-01	0.000000e+00	-3.344836e-01	2.957715e-08	4.066947e-03	1.006251e-04	2.643718e+03	2.071238e+00	0.000000e+00	
3.232528e-01	-5.933656e-02	9.750009e-01	0.000000e+00	0.000000e+00	2.437172e+00	0.000000e+00	9.748687e-01	9.998645e-01	0.000000e+00	-3.580236e-01	2.957732e-08	4.202627e-03	4.744651e-05	2.673400e+03	2.104791e+00	0.000000e+00	
2.895540e-01	-5.947265e-02	9.734344e-01	0.000000e+00	0.000000e+00	2.433275e+00	0.000000e+00	9.733101e-01	9.998723e-01	0.000000e+00	-3.802283e-01	2.957749e-08	4.341737e-03	-1.488495e-05	2.704421e+03	2.139287e+00	0.000000e+00	
2.578733e-01	-5.911242e-02	9.719868e-01	0.000000e+00	0.000000e+00	2.429679e+00	0.000000e+00	9.718714e-01	9.998813e-01	0.000000e+00	-4.007233e-01	2.957770e-08	4.483814e-03	-8.705135e-05	2.737025e+03	2.174760e+00	0.000000e+00	
2.283666e-01	-5.828472e-02	9.706847e-01	0.000000e+00	0.000000e+00	2.426449e+00	0.000000e+00	9.705795e-01	9.998916e-01	0.000000e+00	-4.191282e-01	2.957793e-08	4.628309e-03	-1.697155e-04	2.771406e+03	2.211257e+00	0.000000e+00	
2.011248e-01	-5.703151e-02	9.695494e-01	0.000000e+00	0.000000e+00	2.423639e+00	0.000000e+00	9.694556e-01	9.999033e-01	0.000000e+00	-4.351395e-01	2.957820e-08	4.774308e-03	-2.635429e-04	2.807544e+03	2.248769e+00	0.000000e+00	
1.761797e-01	-5.540400e-02	9.685994e-01	0.000000e+00	0.000000e+00	2.421295e+00	0.000000e+00	9.685179e-01	9.999159e-01	0.000000e+00	-4.484987e-01	2.957849e-08	4.920550e-03	-3.692215e-04	2.845279e+03	2.287244e+00	0.000000e+00	
1.535115e-01	-5.345876e-02	9.678499e-01	0.000000e+00	0.000000e+00	2.419453e+00	0.000000e+00	9.677811e-01	9.999288e-01	0.000000e+00	-4.589954e-01	2.957878e-08	5.065667e-03	-4.875063e-04	2.884384e+03	2.326654e+00	0.000000e+00	
1.330575e-01	-5.125403e-02	9.673159e-01	0.000000e+00	0.000000e+00	2.418149e+00	0.000000e+00	9.672597e-01	9.999419e-01	0.000000e+00	-4.664233e-01	2.957908e-08	5.208356e-03	-6.192840e-04	2.924669e+03	2.367044e+00	0.000000e+00	
1.147221e-01	-4.884662e-02	9.670091e-01	0.000000e+00	0.000000e+00	2.417414e+00	0.000000e+00	9.669656e-01	9.999550e-01	0.000000e+00	-4.706131e-01	2.957938e-08	5.347179e-03	-7.656126e-04	2.965885e+03	2.408487e+00	0.000000e+00	
9.838552e-02	-4.628967e-02	9.669465e-01	0.000000e+00	0.000000e+00	2.417289e+00	0.000000e+00	9.669156e-01	9.999680e-01	0.000000e+00	-4.713252e-01	2.957967e-08	5.480517e-03	-9.277565e-04	3.007812e+03	2.451101e+00	0.000000e+00	
8.391231e-02	-4.363107e-02	9.671502e-01	0.000000e+00	0.000000e+00	2.417829e+00	0.000000e+00	9.671315e-01	9.999807e-01	0.000000e+00	-4.682494e-01	2.957996e-08	5.606218e-03	-1.107157e-03	3.050216e+03	2.494989e+00	0.000000e+00	
7.115831e-02	-4.091264e-02	9.676478e-01	0.000000e+00	0.000000e+00	2.419102e+00	0.000000e+00	9.676409e-01	9.999929e-01	0.000000e+00	-4.609916e-01	2.958024e-08	5.721303e-03	-1.305353e-03	3.092826e+03	2.540194e+00	0.000000e+00	
5.997667e-02	-3.816999e-02	9.684783e-01	0.000000e+00	0.000000e+00	2.421206e+00	0.000000e+00	9.684822e-01	1.000004e+00	0.000000e+00	-4.490065e-01	2.958049e-08	5.821712e-03	-1.523835e-03	3.135404e+03	2.586674e+00	0.000000e+00	
5.022241e-02	-3.543267e-02	9.696941e-01	0.000000e+00	0.000000e+00	2.424268e+00	0.000000e+00	9.697073e-01	1.000014e+00	0.000000e+00	-4.315540e-01	2.958071e-08	5.901970e-03	-1.763799e-03	3.177826e+03	2.634257e+00	0.000000e+00	
4.175588e-02	-3.272472e-02	9.713619e-01	0.000000e+00	0.000000e+00	2.428454e+00	0.000000e+00	9.713817e-01	1.000020e+00	0.000000e+00	-4.077005e-01	2.958086e-08	5.954960e-03	-2.025782e-03	3.220170e+03	2.682597e+00	0.000000e+00	
3.444509e-02	-3.006547e-02	9.735627e-01	0.000000e+00	0.000000e+00	2.433964e+00	0.000000e+00	9.735858e-01	1.000024e+00	0.000000e+00	-3.763005e-01	2.958094e-08	5.972165e-03	-2.309291e-03	3.262882e+03	2.731225e+00	0.000000e+00	
2.816724e-02	-2.747033e-02	9.763917e-01	0.000000e+00	0.000000e+00	2.441038e+00	0.000000e+00	9.764153e-01	1.000024e+00	0.000000e+00	-3.359913e-01	2.958095e-08	5.944540e-03	-2.612576e-03	3.306883e+03	2.779706e+00	0.000000e+00	
2.280944e-02	-2.495170e-02	9.799589e-01	0.000000e+00	0.000000e+00	2.449952e+00	0.000000e+00	9.799809e-01	1.000022e+00	0.000000e+00	-2.851956e-01	2.958091e-08	5.862325e-03	-2.931894e-03	3.353588e+03	2.827518e+00	0.000000e+00	
1.826886e-02	-2.251990e-02	9.843806e-01	0.000000e+00	0.000000e+00	2.460989e+00	0.000000e+00	9.843955e-01	1.000015e+00	0.000000e+00	-2.223045e-01	2.958074e-08	5.712627e-03	-3.258966e-03	3.404831e+03	2.873283e+00	0.000000e+00	
1.445220e-02	-2.018403e-02	9.897663e-01	0.000000e+00	0.000000e+00	2.474397e+00	0.000000e+00	9.897589e-01	9.999925e-01	0.000000e+00	-1.458956e-01	2.958023e-08	5.480303e-03	-3.578944e-03	3.462997e+03	2.914492e+00	0.000000e+00	
1.127516e-02	-1.795263e-02	9.961889e-01	0.000000e+00	0.000000e+00	2.490326e+00	0.000000e+00	9.961303e-01	9.999412e-01	0.000000e+00	-5.512889e-02	2.957906e-08	5.152200e-03	-3.869740e-03	3.531312e+03	2.947737e+00	0.000000e+00	
8.660978e-03	-1.583433e-02	1.003631e+00	0.000000e+00	0.000000e+00	2.508698e+00	0.000000e+00	1.003479e+00	9.998487e-01	0.000000e+00	4.956603e-02	2.957696e-08	4.723740e-03	-4.103966e-03	3.613747e+03	2.969345e+00	0.000000e+00	
6.539262e-03	-1.383810e-02	1.011950e+00	0.000000e+00	0.000000e+00	2.529146e+00	0.000000e+00	1.011658e+00	9.997114e-01	0.000000e+00	1.660877e-01	2.957383e-08	4.204430e-03	-4.254086e-03	3.714815e+03	2.976361e+00	0.000000e+00	
4.844550e-03	-1.197282e-02	1.020843e+00	0.000000e+00	0.000000e+00	2.550949e+00	0.000000e+00	1.020380e+00	9.995464e-01	0.000000e+00	2.903308e-01	2.957008e-08	3.619566e-03	-4.298777e-03	3.837675e+03	2.967078e+00	0.000000e+00	
3.515320e-03	-1.024671e-02	1.029860e+00	0.000000e+00	0.000000e+00	2.573099e+00	0.000000e+00	1.029240e+00	9.993973e-01	0.000000e+00	4.165518e-01	2.956669e-08	3.004921e-03	-4.226369e-03	3.978294e+03	2.940519e+00	0.000000e+00	
2.493434e-03	-8.666020e-03	1.038525e+00	0.000000e+00	0.000000e+00	2.594450e+00	0.000000e+00	1.037780e+00	9.992822e-01	0.000000e+00	5.382172e-01	2.956407e-08	2.404065e-03	-4.044557e-03	4.140820e+03	2.898995e+00	0.000000e+00	
1.724623e-03	-7.234077e-03	1.046413e+00	0.000000e+00	0.000000e+00	2.613927e+00	0.000000e+00	1.045571e+00	9.991952e-01	0.000000e+00	6.492064e-01	2.956209e-08	1.849780e-03	-3.765049e-03	4.321328e+03	2.842658e+00	0.000000e+00	
1.159193e-03	-5.950300e-03	1.053224e+00	0.000000e+00	0.000000e+00	2.630758e+00	0.000000e+00	1.052303e+00	9.991254e-01	0.000000e+00	7.451198e-01	2.956050e-08	1.364327e-03	-3.404237e-03	4.505013e+03	2.770054e+00	0.000000e+00	
7.531893e-04	-4.810177e-03	1.058824e+00	0.000000e+00	0.000000e+00	2.644589e+00	0.000000e+00	1.057836e+00	9.990665e-01	0.000000e+00	8.239330e-01	2.955916e-08	9.608405e-04	-2.986025e-03	4.672491e+03	2.680100e+00	0.000000e+00	
4.691284e-04	-3.805771e-03	1.063220e+00	0.000000e+00	0.000000e+00	2.655449e+00	0.000000e+00	1.062180e+00	9.990212e-01	0.000000e+00	8.858203e-01	2.955813e-08	6.429818e-04	-2.539094e-03	4.805334e+03	2.572687e+00	0.000000e+00	
2.762360e-04	-2.926719e-03	1.066523e+00	0.000000e+00	0.000000e+00	2.663638e+00	0.000000e+00	1.065455e+00	9.989987e-01	0.000000e+00	9.324868e-01	2.955762e-08	4.057339e-04	-2.091265e-03	4.888735e+03	2.448152e+00	0.000000e+00	
1.500786e-04	-2.161300e-03	1.068895e+00	0.000000e+00	0.000000e+00	2.669595e+00	0.000000e+00	1.067838e+00	9.990112e-01	0.000000e+00	9.664283e-01	2.955790e-08	2.381153e-04	-1.664842e-03	4.911720e+03	2.306187e+00	0.000000e+00	
7.180327e-05	-1.497377e-03	1.070503e+00	0.000000e+00	0.000000e+00	2.673765e+00	0.000000e+00	1.069506e+00	9.990691e-01	0.000000e+00	9.901936e-01	2.955922e-08	1.265103e-04	-1.274925e-03	4.866503e+03	2.144762e+00	0.000000e+00	
2.721276e-05	-9.231024e-04	1.071522e+00	0.000000e+00	0.000000e+00	2.676587e+00	0.000000e+00	1.070635e+00	9.991721e-01	0.000000e+00	1.006275e+00	2.956156e-08	5.731930e-05	-9.294988e-04	4.746753e+03	1.958592e+00	0.000000e+00	
5.818606e-06	-4.273592e-04	1.072039e+00	0.000000e+00	0.000000e+00	2.678190e+00	0.000000e+00	1.071276e+00	9.992885e-01	0.000000e+00	1.015408e+00	2.956421e-08	1.865914e-05	-6.329492e-04	4.550828e+03	1.739213e+00	0.000000e+00	
0.000000e+00	0.000000e+00	1.072423e+00	0.000000e+00	0.000000e+00	2.679357e+00	0.000000e+00	1.071743e+00	9.993658e-01	0.000000e+00	1.022060e+00	2.956597e-08	-9.863151e-17	-3.765862e-04	4.290538e+03	1.444999e+00	0.000000e+00	
5.818606e-06	4.273592e-04	1.072737e+00	0.000000e+00	0.000000e+00	2.680025e+00	0.000000e+00	1.072010e+00	9.993223e-01	0.000000e+00	1.025864e+00	2.956498e-08	-4.886599e-06	-1.657616e-04	4.601158e+03	8.903082e-01	0.000000e+00	
2.721276e-05	9.231024e-04	1.072937e+00	0.000000e+00	0.000000e+00	2.680179e+00	0.000000e+00	1.072072e+00	9.991935e-01	0.000000e+00	1.026744e+00	2.956205e-08	5.932471e-06	9.620187e-05	4.842717e+03	6.305082e-01	0.000000e+00	
7.180327e-05	1.497377e-03	1.072844e+00	0.000000e+00	0.000000e+00	2.679590e+00	0.000000e+00	1.071836e+00	9.990604e-01	0.000000e+00	1.023387e+00	2.955902e-08	4.110555e-05	4.142468e-04	4.995566e+03	1.223894e+00	0.000000e+00	
1.500786e-04	2.161300e-03	1.072265e+00	0.000000e+00	0.000000e+00	2.677904e+00	0.000000e+00	1.071162e+00	9.989713e-01	0.000000e+00	1.013780e+00	2.955699e-08	1.125855e-04	7.871696e-04	5.067248e+03	1.588324e+00	0.000000e+00	
2.762360e-04	2.926719e-03	1.071036e+00	0.000000e+00	0.000000e+00	2.674743e+00	0.000000e+00	1.069897e+00	9.989369e-01	0.000000e+00	9.957641e-01	2.955621e-08	2.344054e-04	1.208191e-03	5.065226e+03	1.864829e+00	0.000000e+00	
4.691284e-04	3.805771e-03	1.068968e+00	0.000000e+00	0.000000e+00	2.669604e+00	0.000000e+00	1.067842e+00	9.989463e-01	0.000000e+00	9.664815e-01	2.955642e-08	4.213209e-04	1.663769e-03	4.997784e+03	2.088286e+00	0.000000e+00	
7.531893e-04	4.810177e-03	1.065874e+00	0.000000e+00	0.000000e+00	2.661978e+00	0.000000e+00	1.064791e+00	9.989840e-01	0.000000e+00	9.230229e-01	2.955728e-08	6.859856e-04	2.131852e-03	4.874365e+03	2.272226e+00	0.000000e+00	
1.159193e-03	5.950300e-03	1.061595e+00	0.000000e+00	0.000000e+00	2.651430e+00	0.000000e+00	1.060572e+00	9.990360e-01	0.000000e+00	8.629145e-01	2.955846e-08	1.035255e-03	2.583146e-03	4.707590e+03	2.422711e+00	0.000000e+00	
1.724623e-03	7.234077e-03	1.056055e+00	0.000000e+00	0.000000e+00	2.637746e+00	0.000000e+00	1.055098e+00	9.990943e-01	0.000000e+00	7.849403e-01	2.955979e-08	1.466751e-03	2.985430e-03	4.514317e+03	2.543128e+00	0.000000e+00	
2.493434e-03	8.666020e-03	1.049311e+00	0.000000e+00	0.000000e+00	2.621073e+00	0.000000e+00	1.048429e+00	9.991595e-01	0.000000e+00	6.899315e-01	2.956128e-08	1.967767e-03	3.310538e-03	4.314929e+03	2.636610e+00	0.000000e+00	
3.515320e-03	1.024671e-02	1.041584e+00	0.000000e+00	0.000000e+00	2.601986e+00	0.000000e+00	1.040794e+00	9.992422e-01	0.000000e+00	5.811605e-01	2.956316e-08	2.517452e-03	3.540753e-03	4.129649e+03	2.707059e+00	0.000000e+00	
4.844550e-03	1.197282e-02	1.033234e+00	0.000000e+00	0.000000e+00	2.581423e+00	0.000000e+00	1.032569e+00	9.993568e-01	0.000000e+00	4.639840e-01	2.956577e-08	3.089812e-03	3.669615e-03	3.971772e+03	2.758354e+00	0.000000e+00	
6.539262e-03	1.383810e-02	1.024698e+00	0.000000e+00	0.000000e+00	2.560485e+00	0.000000e+00	1.024194e+00	9.995085e-01	0.000000e+00	3.446703e-01	2.956922e-08	3.652600e-03	3.695739e-03	3.840251e+03	2.792024e+00	0.000000e+00	
8.660978e-03	1.583433e-02	1.016424e+00	0.000000e+00	0.000000e+00	2.540202e+00	0.000000e+00	1.016081e+00	9.996623e-01	0.000000e+00	2.290893e-01	2.957272e-08	4.171669e-03	3.624329e-03	3.732178e+03	2.808570e+00	0.000000e+00	
1.127516e-02	1.795263e-02	1.008769e+00	0.000000e+00	0.000000e+00	2.521378e+00	0.000000e+00	1.008551e+00	9.997840e-01	0.000000e+00	1.218219e-01	2.957548e-08	4.620464e-03	3.470361e-03	3.643422e+03	2.809395e+00	0.000000e+00	
1.445220e-02	2.018403e-02	1.001940e+00	0.000000e+00	0.000000e+00	2.504513e+00	0.000000e+00	1.001805e+00	9.998657e-01	0.000000e+00	2.571648e-02	2.957734e-08	4.983563e-03	3.254545e-03	3.567263e+03	2.796580e+00	0.000000e+00	
1.826886e-02	2.251990e-02	9.960127e-01	0.000000e+00	0.000000e+00	2.489821e+00	0.000000e+00	9.959284e-01	9.999153e-01	0.000000e+00	-5.800453e-02	2.957847e-08	5.258611e-03	2.999957e-03	3.498895e+03	2.773194e+00	0.000000e+00	
2.280944e-02	2.495170e-02	9.909674e-01	0.000000e+00	0.000000e+00	2.477281e+00	0.000000e+00	9.909126e-01	9.999447e-01	0.000000e+00	-1.294604e-01	2.957914e-08	5.452743e-03	2.727052e-03	3.435621e+03	2.742393e+00	0.000000e+00	
2.816724e-02	2.747033e-02	9.867355e-01	0.000000e+00	0.000000e+00	2.466747e+00	0.000000e+00	9.866989e-01	9.999629e-01	0.000000e+00	-1.894900e-01	2.957955e-08	5.577285e-03	2.451171e-03	3.376086e+03	2.706823e+00	0.000000e+00	